----- GAMESS execution script 'rungms' -----
This job is running on host chem-xenon-c01
under operating system Linux at Tue Dec 31 16:20:50 MST 2019
SGE has assigned the following compute nodes to this run:
Available scratch disk space (Kbyte units) at beginning of the job is
Filesystem              1K-blocks    Used Available Use% Mounted on
/dev/mapper/centos-root  52403200 6972216  45430984  14% /
GAMESS temporary binary files will be written to /tmp/92838.1.chem-xenon
GAMESS supplementary output files will be written to /home/chemistry/trananh/scr
Copying input file SeBr_mp2_monomer.inp to your run's scratch directory...
hydra
MPI kickoff will run GAMESS on 16 cores in 0 nodes.
The binary to be executed is /home/xenon_shared/gamess/gamess.00.x
MPI will run 16 compute processes and 16 data servers,
    placing 1 of each process type onto each node.
The scratch disk space on each node is /tmp/92838.1.chem-xenon, with free space
Filesystem              1K-blocks    Used Available Use% Mounted on
/dev/mapper/centos-root  52403200 6972240  45430960  14% /
          ******************************************************
          *         GAMESS VERSION = 14 FEB 2018 (R1)         *
          *             FROM IOWA STATE UNIVERSITY             *
          * M.W.SCHMIDT, K.K.BALDRIDGE, J.A.BOATZ, S.T.ELBERT, *
          *   M.S.GORDON, J.H.JENSEN, S.KOSEKI, N.MATSUNAGA,   *
          *          K.A.NGUYEN, S.J.SU, T.L.WINDUS,           *
          *       TOGETHER WITH M.DUPUIS, J.A.MONTGOMERY       *
          *         J.COMPUT.CHEM.  14, 1347-1363(1993)        *
          **************** 64 BIT LINUX VERSION ****************

  SINCE 1993, STUDENTS AND POSTDOCS WORKING AT IOWA STATE UNIVERSITY
  AND ALSO IN THEIR VARIOUS JOBS AFTER LEAVING ISU HAVE MADE IMPORTANT
  CONTRIBUTIONS TO THE CODE:
     IVANA ADAMOVIC, CHRISTINE AIKENS, YURI ALEXEEV, POOJA ARORA,
     ANDREY ASADCHEV, ROB BELL, PRADIPTA BANDYOPADHYAY, JONATHAN BENTZ,
     BRETT BODE, KURT BRORSEN, CALEB CARLIN, GALINA CHABAN, WEI CHEN,
     CHEOL HO CHOI, PAUL DAY, ALBERT DEFUSCO, NUWAN DESILVA, TIM DUDLEY,
     DMITRI FEDOROV, ALEX FINDLATER, GRAHAM FLETCHER, MARK FREITAG,
     KURT GLAESEMANN, ANASTASIA GUININA,
     DAN KEMP, GRANT MERRILL, NORIYUKI MINEZAWA, JONATHAN MULLIN,
     TAKESHI NAGATA, SEAN NEDD, HEATHER NETZLOFF, BOSILJKA NJEGIC, RYAN OLSON,
     MIKE PAK, BUU PHAM,
     SPENCER PRUITT, LUKE ROSKOP, JIM SHOEMAKER, LYUDMILA SLIPCHENKO,
     TONY SMITH, SAROM SOK LEANG, JIE SONG, TETSUYA TAKETSUGU, SIMON WEBB,
     PENG XU, SOOHAENG YOO, FEDERICO ZAHARIEV

  ADDITIONAL CODE HAS BEEN PROVIDED BY COLLABORATORS IN OTHER GROUPS:
     IOWA STATE UNIVERSITY:
          JOE IVANIC, AARON WEST, LAIMUTIS BYTAUTAS, KLAUS RUEDENBERG
     UNIVERSITY OF TOKYO: KIMIHIKO HIRAO, TAKAHITO NAKAJIMA,
          TAKAO TSUNEDA, MUNEAKI KAMIYA, SUSUMU YANAGISAWA,
          KIYOSHI YAGI, MAHITO CHIBA, SEIKEN TOKURA, NAOAKI KAWAKAMI
     UNIVERSITY OF AARHUS: FRANK JENSEN
     UNIVERSITY OF IOWA: VISVALDAS KAIRYS, HUI LI
     NATIONAL INST. OF STANDARDS AND TECHNOLOGY: WALT STEVENS, DAVID GARMER
     UNIVERSITY OF PISA: BENEDETTA MENNUCCI, JACOPO TOMASI
     UNIVERSITY OF MEMPHIS: HENRY KURTZ, PRAKASHAN KORAMBATH
     UNIVERSITY OF ALBERTA: TOBY ZENG, MARIUSZ KLOBUKOWSKI
     UNIVERSITY OF NEW ENGLAND: MARK SPACKMAN
     MIE UNIVERSITY: HIROAKI UMEDA
     NAT. INST. OF ADVANCED INDUSTRIAL SCIENCE AND TECHNOLOGY: KAZUO KITAURA
     MICHIGAN STATE UNIVERSITY:
          KAROL KOWALSKI, MARTA WLOCH, JEFFREY GOUR, JESSE LUTZ,
          WEI LI, PIOTR PIECUCH
     UNIVERSITY OF SILESIA: MONIKA MUSIAL, STANISLAW KUCHARSKI
     FACULTES UNIVERSITAIRES NOTRE-DAME DE LA PAIX:
          OLIVIER QUINET, BENOIT CHAMPAGNE
     UNIVERSITY OF CALIFORNIA - SANTA BARBARA: BERNARD KIRTMAN
     INSTITUTE FOR MOLECULAR SCIENCE:
          KAZUYA ISHIMURA, MICHIO KATOUDA, AND SHIGERU NAGASE
     UNIVERSITY OF NOTRE DAME: ANNA POMOGAEVA, DAN CHIPMAN
     KYUSHU UNIVERSITY:
          HARUYUKI NAKANO,
          FENG LONG GU, JACEK KORCHOWIEC, MARCIN MAKOWSKI, AND YURIKO AOKI,
          HIROTOSHI MORI AND EISAKU MIYOSHI
     PENNSYLVANIA STATE UNIVERSITY:
          TZVETELIN IORDANOV, CHET SWALINA, JONATHAN SKONE,
          SHARON HAMMES-SCHIFFER
     WASEDA UNIVERSITY:
          MASATO KOBAYASHI, TOMOKO AKAMA, TSUGUKI TOUMA,
          TAKESHI YOSHIKAWA, YASUHIRO IKABATA, JUNJI SEINO,
          YUYA NAKAJIMA, HIROMI NAKAI
     NANJING UNIVERSITY: SHUHUA LI
     UNIVERSITY OF NEBRASKA:
          PEIFENG SU, DEJUN SI, NANDUN THELLAMUREGE, YALI WANG, HUI LI
     UNIVERSITY OF ZURICH: ROBERTO PEVERATI, KIM BALDRIDGE
     N. COPERNICUS UNIVERSITY AND JACKSON STATE UNIVERSITY:
          MARIA BARYSZ
     UNIVERSITY OF COPENHAGEN: Jimmy Kromann, CASPER STEINMANN
     TOKYO INSTITUTE OF TECHNOLOGY: HIROYA NAKATA
     NAGOYA UNIVERSITY: YOSHIO NISHIMOTO, STEPHAN IRLE
     MOSCOW STATE UNIVERSITY: VLADIMIR MIRONOV


 PARALLEL VERSION RUNNING ON       16 PROCESSORS IN        1 NODES.

 EXECUTION OF GAMESS BEGUN Tue Dec 31 16:20:50 2019

            ECHO OF THE FIRST FEW INPUT CARDS -
 INPUT CARD> $contrl scftyp=rhf mplevl=2 runtyp=optimize                                    
 INPUT CARD>   exetyp=run  MAXIT=100 ISPHER=1 $end                                          
 INPUT CARD> $system PARALL=.TRUE. mwords=10 memddi=800 $end                                
 INPUT CARD> $statpt hssend=.t. $end                                                        
 INPUT CARD> $scf diis=.t. dirscf=.t. $end                                                  
 INPUT CARD> $basis GBASIS=SPK-DZP $end                                                     
 INPUT CARD> $data                                                                          
 INPUT CARD>optimization of SBr dimer                                                       
 INPUT CARD>Cnv 2                                                                           
 INPUT CARD>                                                                                
 INPUT CARD>N     7.0     1.23764765     0.00000000     1.88614857                          
 INPUT CARD>C     6.0     0.72595716     0.00000000     0.64719748                          
 INPUT CARD>Se   34.0     0.00000000     0.00000000     2.92962503                          
 INPUT CARD>C     6.0     1.43660164     0.00000000    -0.59182131                          
 INPUT CARD>C     6.0     0.72792113     0.00000000    -1.76623857                          
 INPUT CARD>Br    35.0     3.36557269     0.00000000    -0.61494368                         
 INPUT CARD>H     1.0     1.25477159     0.00000000    -2.71450734                          
 INPUT CARD> $end                                                                           
 INPUT CARD>                                                                                
   10000000 WORDS OF MEMORY AVAILABLE

     $BASIS REQUESTS READING THE "SPK-DZP " BASIS SET FROM AN EXTERNAL FILE


     RUN TITLE
     ---------
 optimization of SBr dimer                                                       

 THE POINT GROUP OF THE MOLECULE IS CNV     
 THE ORDER OF THE PRINCIPAL AXIS IS     2

 THE EXTERNAL BASIS SET FILE BEING READ IS
     "/home/xenon_shared/gamess/auxdata/BASES/SPK-DZP"

 ATOM      ATOMIC                      COORDINATES (BOHR)
           CHARGE         X                   Y                   Z
 N           7.0    -2.3388149278        0.0000000000        3.5643039694
 N           7.0     2.3388149278        0.0000000000        3.5643039694
 C           6.0    -1.3718601112        0.0000000000        1.2230258971
 C           6.0     1.3718601112        0.0000000000        1.2230258971
 SE         34.0     0.0000000000        0.0000000000        5.5361885535
 C           6.0    -2.7147834531        0.0000000000       -1.1183801096
 C           6.0     2.7147834531        0.0000000000       -1.1183801096
 C           6.0    -1.3755714764        0.0000000000       -3.3377069262
 C           6.0     1.3755714764        0.0000000000       -3.3377069262
 BR         35.0    -6.3600101759        0.0000000000       -1.1620750531
 BR         35.0     6.3600101759        0.0000000000       -1.1620750531
 H           1.0    -2.3711744823        0.0000000000       -5.1296750643
 H           1.0     2.3711744823        0.0000000000       -5.1296750643

          INTERNUCLEAR DISTANCES (ANGS.)
          ------------------------------

                1 N          2 N          3 C          4 C          5 SE    

   1 N       0.0000000    2.4752953 *  1.3404577 *  2.3217975 *  1.6188313 *
   2 N       2.4752953 *  0.0000000    2.3217975 *  1.3404577 *  1.6188313 *
   3 C       1.3404577 *  2.3217975 *  0.0000000    1.4519143 *  2.3950969 *
   4 C       2.3217975 *  1.3404577 *  1.4519143 *  0.0000000    2.3950969 *
   5 SE      1.6188313 *  1.6188313 *  2.3950969 *  2.3950969 *  0.0000000  
   6 C       2.4859440 *  3.6458118    1.4283498 *  2.4923539 *  3.8032103  
   7 C       3.6458118    2.4859440 *  2.4923539 *  1.4283498 *  3.8032103  
   8 C       3.6877843    4.1476972    2.4134368 *  2.8175230 *  4.7519474  
   9 C       4.1476972    3.6877843    2.8175230 *  2.4134368 *  4.7519474  
  10 BR      3.2838282    5.2388071    2.9258453 *  4.2817773    4.8878469  
  11 BR      5.2388071    3.2838282    4.2817773    2.9258453 *  4.8878469  
  12 H       4.6006878    5.2324171    3.4030433    3.9018388    5.7819272  
  13 H       5.2324171    4.6006878    3.9018388    3.4030433    5.7819272  

                6 C          7 C          8 C          9 C         10 BR    

   1 N       2.4859440 *  3.6458118    3.6877843    4.1476972    3.2838282  
   2 N       3.6458118    2.4859440 *  4.1476972    3.6877843    5.2388071  
   3 C       1.4283498 *  2.4923539 *  2.4134368 *  2.8175230 *  2.9258453 *
   4 C       2.4923539 *  1.4283498 *  2.8175230 *  2.4134368 *  4.2817773  
   5 SE      3.8032103    3.8032103    4.7519474    4.7519474    4.8878469  
   6 C       0.0000000    2.8732033 *  1.3716720 *  2.4626032 *  1.9291096 *
   7 C       2.8732033 *  0.0000000    2.4626032 *  1.3716720 *  4.8022300  
   8 C       1.3716720 *  2.4626032 *  0.0000000    1.4558423 *  2.8779655 *
   9 C       2.4626032 *  1.3716720 *  1.4558423 *  0.0000000    4.2523137  
  10 BR      1.9291096 *  4.8022300    2.8779655 *  4.2523137    0.0000000  
  11 BR      4.8022300    1.9291096 *  4.2523137    2.8779655 *  6.7311454  
  12 H       2.1304596 *  3.4277231    1.0847972 *  2.1977907 *  2.9771881 *
  13 H       3.4277231    2.1304596 *  2.1977907 *  1.0847972 *  5.0750122  

               11 BR        12 H         13 H     

   1 N       5.2388071    4.6006878    5.2324171  
   2 N       3.2838282    5.2324171    4.6006878  
   3 C       4.2817773    3.4030433    3.9018388  
   4 C       2.9258453 *  3.9018388    3.4030433  
   5 SE      4.8878469    5.7819272    5.7819272  
   6 C       4.8022300    2.1304596 *  3.4277231  
   7 C       1.9291096 *  3.4277231    2.1304596 *
   8 C       4.2523137    1.0847972 *  2.1977907 *
   9 C       2.8779655 *  2.1977907 *  1.0847972 *
  10 BR      6.7311454    2.9771881 *  5.0750122  
  11 BR      0.0000000    5.0750122    2.9771881 *
  12 H       5.0750122    0.0000000    2.5095432 *
  13 H       2.9771881 *  2.5095432 *  0.0000000  

  * ... LESS THAN  3.000


     ATOMIC BASIS SET
     ----------------
 THE CONTRACTED PRIMITIVE FUNCTIONS HAVE BEEN UNNORMALIZED
 THE CONTRACTED BASIS FUNCTIONS ARE NOW NORMALIZED TO UNITY

  SHELL TYPE  PRIMITIVE        EXPONENT          CONTRACTION COEFFICIENT(S)

 N         

      7   S       1          3849.6414482    0.002019699943
      7   S       2           578.1703237    0.015416099561
      7   S       3           131.5181173    0.075196397860
      7   S       4            36.9793133    0.250154392880
      7   S       5            11.8003238    0.482662386262
      7   S       6             3.9716435    0.324386490767

      8   S       7             7.4405714   -0.155823906406
      8   S       8             0.6860189    1.054501443352

      9   S       9             0.2120869    1.000000000000

     10   P      10            13.5438020    0.058884896139
     10   P      11             2.9154559    0.320534878980
     10   P      12             0.7963920    0.753059350617

     11   P      13             0.2182449    1.000000000000

     12   D      14             1.8733840    0.353305991268
     12   D      15             0.4939230    0.780049980721

 C         

     19   S      16          2804.4309400    0.002026599960
     19   S      17           421.2028430    0.015461499693
     19   S      18            95.8101611    0.075272098504
     19   S      19            26.9201912    0.249289495047
     19   S      20             8.5644365    0.481820890426
     19   S      21             2.8735285    0.326709893508

     20   S      22             5.1471339   -0.157244000570
     20   S      23             0.4760365    1.055038503825

     21   S      24             0.1497894    1.000000000000

     22   P      25             9.4396811    0.056939298177
     22   P      26             2.0004048    0.313326189969
     22   P      27             0.5449164    0.760355475658

     23   P      28             0.1514606    1.000000000000

     24   D      29             1.2514630    0.357204901536
     24   D      30             0.3377940    0.773651703327

 SE        

     25   S      31        241498.6382409    0.000621699987
     25   S      32         36223.7408736    0.004804399901
     25   S      33          8243.4547006    0.024650599491
     25   S      34          2332.0080828    0.095807098022
     25   S      35           760.4702669    0.268601694454
     25   S      36           272.0485848    0.463060390439
     25   S      37           100.7295011    0.286769294079

     26   S      38           578.5796313   -0.025072601389
     26   S      39           179.7486759   -0.120189606660
     26   S      40            28.6642790    0.588720332621
     26   S      41            11.8693555    0.502821927862

     27   S      42            19.9031660   -0.236893902524
     27   S      43             3.3851284    0.726202507736
     27   S      44             1.4483918    0.409528504363

     28   S      45             2.0728541   -0.335682112203
     28   S      46             0.3352235    1.154991241986

     29   S      47             0.1251479    1.000000000000

     30   P      48          4987.1768459    0.001019599973
     30   P      49          1182.1765262    0.008662599769
     30   P      50           381.9907152    0.044713998810
     30   P      51           144.3524457    0.157033595821
     30   P      52            59.8682607    0.349351990704
     30   P      53            26.1507531    0.434502088438
     30   P      54            11.1948834    0.187102895021

     31   P      55            54.3041566   -0.018737998898
     31   P      56             7.9587015    0.308841681832
     31   P      57             3.3433343    0.549254367690
     31   P      58             1.3700986    0.248043985409

     32   P      59             0.5441071    0.413312103528
     32   P      60             0.2107083    0.648461805536

     33   P      61             0.0794330    1.000000000000

     34   D      62           237.0548228    0.003797999977
     34   D      63            70.8504951    0.029393999821
     34   D      64            26.4912435    0.117665199282
     34   D      65            10.9539115    0.281668198282
     34   D      66             4.6411645    0.403634397539
     34   D      67             1.9254421    0.344914297897
     34   D      68             0.7322816    0.120253299267

     35   D      69             0.5653420    0.525123602025
     35   D      70             0.2082120    0.573168502210

 C         

     42   S      71          2804.4309400    0.002026599960
     42   S      72           421.2028430    0.015461499693
     42   S      73            95.8101611    0.075272098504
     42   S      74            26.9201912    0.249289495047
     42   S      75             8.5644365    0.481820890426
     42   S      76             2.8735285    0.326709893508

     43   S      77             5.1471339   -0.157244000570
     43   S      78             0.4760365    1.055038503825

     44   S      79             0.1497894    1.000000000000

     45   P      80             9.4396811    0.056939298177
     45   P      81             2.0004048    0.313326189969
     45   P      82             0.5449164    0.760355475658

     46   P      83             0.1514606    1.000000000000

     47   D      84             1.2514630    0.357204901536
     47   D      85             0.3377940    0.773651703327

 C         

     54   S      86          2804.4309400    0.002026599960
     54   S      87           421.2028430    0.015461499693
     54   S      88            95.8101611    0.075272098504
     54   S      89            26.9201912    0.249289495047
     54   S      90             8.5644365    0.481820890426
     54   S      91             2.8735285    0.326709893508

     55   S      92             5.1471339   -0.157244000570
     55   S      93             0.4760365    1.055038503825

     56   S      94             0.1497894    1.000000000000

     57   P      95             9.4396811    0.056939298177
     57   P      96             2.0004048    0.313326189969
     57   P      97             0.5449164    0.760355475658

     58   P      98             0.1514606    1.000000000000

     59   D      99             1.2514630    0.357204901536
     59   D     100             0.3377940    0.773651703327

 BR        

     71   S     101        256645.2030355    0.000619700029
     71   S     102         38495.7766882    0.004789000227
     71   S     103          8760.5091678    0.024574601166
     71   S     104          2478.2838088    0.095546404533
     71   S     105           808.2447353    0.268061012717
     71   S     106           289.1625263    0.462976621964
     71   S     107           107.0934730    0.287633513645

     72   S     108           613.5224517   -0.025192001816
     72   S     109           190.7138377   -0.120630008694
     72   S     110            30.5707659    0.587635042351
     72   S     111            12.6928876    0.504097036331

     73   S     112            21.2820418   -0.239921412900
     73   S     113             3.6421401    0.734082239471
     73   S     114             1.5786498    0.402608821648

     74   S     115             2.3287828   -0.357309586813
     74   S     116             0.3897857    1.166906456933

     75   S     117             0.1463345    1.000000000000

     76   P     118          5342.2168571    0.001006599976
     76   P     119          1266.3113494    0.008560299795
     76   P     120           409.2546341    0.044267098939
     76   P     121           154.7191943    0.155927196263
     76   P     122            64.2264072    0.348099891658
     76   P     123            28.0884743    0.435126789573
     76   P     124            12.0437882    0.188769595476

     77   P     125            57.9722827   -0.019034900449
     77   P     126             8.6008238    0.307914607259
     77   P     127             3.6481398    0.551236312995
     77   P     128             1.5138268    0.244300405759

     78   P     129             0.6376017    0.426028818572
     78   P     130             0.2473004    0.636259227737

     79   P     131             0.0927539    1.000000000000

     80   D     132           264.0046183    0.003598899803
     80   D     133            78.9818414    0.028218298458
     80   D     134            29.6281255    0.114567393739
     80   D     135            12.3049905    0.278906684757
     80   D     136             5.2531256    0.405751677825
     80   D     137             2.2061741    0.345835681099
     80   D     138             0.8503817    0.115839093669

     81   D     139             0.6556870    0.532970097535
     81   D     140             0.2445410    0.563249097395

 H         

     85   S     141            13.0107003    0.033485498243
     85   S     142             1.9622571    0.234721887684
     85   S     143             0.4445380    0.813770257302

     86   S     144             0.1219496    1.000000000000

     87   P     145             2.8606730    0.128855988588
     87   P     146             0.8881900    0.619748745112
     87   P     147             0.3037760    0.373112866955

 TOTAL NUMBER OF BASIS SET SHELLS             =   87
 NUMBER OF CARTESIAN GAUSSIAN BASIS FUNCTIONS =  217
 NOTE: THIS RUN WILL RESTRICT THE MO VARIATION SPACE TO SPHERICAL HARMONICS.
 THE NUMBER OF ORBITALS KEPT IN THE VARIATIONAL SPACE WILL BE PRINTED LATER.
 NUMBER OF ELECTRONS                          =  156
 CHARGE OF MOLECULE                           =    0
 SPIN MULTIPLICITY                            =    1
 NUMBER OF OCCUPIED ORBITALS (ALPHA)          =   78
 NUMBER OF OCCUPIED ORBITALS (BETA )          =   78
 TOTAL NUMBER OF ATOMS                        =   13
 THE NUCLEAR REPULSION ENERGY IS     1558.4853521688

     $CONTRL OPTIONS
     ---------------
 SCFTYP=RHF          RUNTYP=OPTIMIZE     EXETYP=RUN     
 MPLEVL=       2     CITYP =NONE         CCTYP =NONE         VBTYP =NONE    
 DFTTYP=NONE         TDDFT =NONE    
 MULT  =       1     ICHARG=       0     NZVAR =       0     COORD =UNIQUE  
 PP    =NONE         RELWFN=NONE         LOCAL =NONE         NUMGRD=       F
 ISPHER=       1     NOSYM =       0     MAXIT =     100     UNITS =ANGS    
 PLTORB=       F     MOLPLT=       F     AIMPAC=       F     FRIEND=        
 NPRINT=       7     IREST =       0     GEOM  =INPUT   
 NORMF =       0     NORMP =       0     ITOL  =      20     ICUT  =       9
 INTTYP=BEST         GRDTYP=BEST         QMTTOL= 1.0E-06

     $SYSTEM OPTIONS
     ---------------
  REPLICATED MEMORY=    10000000 WORDS (ON EVERY NODE).
 DISTRIBUTED MEMDDI=         800 MILLION WORDS IN AGGREGATE,
 MEMDDI DISTRIBUTED OVER  16 PROCESSORS IS    50000000 WORDS/PROCESSOR.
 TOTAL MEMORY REQUESTED ON EACH PROCESSOR=    60000000 WORDS.
 TIMLIM=      525600.00 MINUTES, OR     365.0 DAYS.
 PARALL= T  BALTYP=  DLB     KDIAG=    0  COREFL= F
 MXSEQ2=     300 MXSEQ3=     150  mem10=         0

          ----------------
          PROPERTIES INPUT
          ----------------

     MOMENTS            FIELD           POTENTIAL          DENSITY
 IEMOM =       1   IEFLD =       0   IEPOT =       0   IEDEN =       0
 WHERE =COMASS     WHERE =NUCLEI     WHERE =NUCLEI     WHERE =NUCLEI  
 OUTPUT=BOTH       OUTPUT=BOTH       OUTPUT=BOTH       OUTPUT=BOTH    
 IEMINT=       0   IEFINT=       0                     IEDINT=       0
                                                       MORB  =       0
          EXTRAPOLATION IN EFFECT
          DIIS IN EFFECT
 ORBITAL PRINTING OPTION: NPREO=     1   217     2     1

     -------------------------------
     INTEGRAL TRANSFORMATION OPTIONS
     -------------------------------
     NWORD  =            0
     CUTOFF = 1.0E-09     MPTRAN =       0
     DIRTRF =       T     AOINTS =DUP     

          ----------------------
          INTEGRAL INPUT OPTIONS
          ----------------------
 NOPK  =       1 NORDER=       0 SCHWRZ=       T

          -----------------------
          MP2 CONTROL INFORMATION
          -----------------------
          NACORE =       50  NBCORE =       50
          LMOMP2 =        F  AOINTS = DUP     
          METHOD =        2  NWORD  =               0
          MP2PRP =        F  OSPT   = NONE    
          CUTOFF = 1.00E-09  CPHFBS = BASISAO 
          CODE   = DDI     

          NUMBER OF CORE -A-  ORBITALS =    50
          NUMBER OF CORE -B-  ORBITALS =    50
          NUMBER OF OCC. -A-  ORBITALS =    78
          NUMBER OF OCC. -B-  ORBITALS =    78
          NUMBER OF MOLECULAR ORBITALS =   217
          NUMBER OF   BASIS  FUNCTIONS =   217


     ------------------------------------------
     THE POINT GROUP IS CNV, NAXIS= 2, ORDER= 4
     ------------------------------------------

 -- VARIATIONAL SPACE WILL BE RESTRICTED TO PURE SPHERICAL HARMONICS ONLY --
 AFTER EXCLUDING CONTAMINANT COMBINATIONS FROM THE CARTESIAN GAUSSIAN BASIS
 SET, THE NUMBER OF SPHERICAL HARMONICS KEPT IN THE VARIATION SPACE IS  203

     DIMENSIONS OF THE SYMMETRY SUBSPACES ARE
 A1  =   76     A2  =   27     B1  =   69     B2  =   31

 ..... DONE SETTING UP THE RUN .....
 CPU     0: STEP CPU TIME=     2.61 TOTAL CPU TIME=          2.6 (      0.0 MIN)
 TOTAL WALL CLOCK TIME=          2.7 SECONDS, CPU UTILIZATION IS    97.39%


          -----------------------------
          STATIONARY POINT LOCATION RUN
          -----------------------------

 OBTAINING INITIAL HESSIAN, HESS=GUESS   
 CARTESIAN COORDINATE OPTIMIZATION USING BADGER'S RULE FORCE CONSTANT GUESS

          PARAMETERS CONTROLLING GEOMETRY SEARCH ARE
          METHOD =QA                  UPHESS =BFGS    
          NNEG   =         0          NFRZ   =         0
          NSTEP  =        50          IFOLOW =         1
          HESS   =GUESS               RESTAR =         F
          IHREP  =         0          HSSEND =         T
          NPRT   =         0          NPUN   =         0
          OPTTOL = 1.000E-04          RMIN   = 1.500E-03
          RMAX   = 1.000E-01          RLIM   = 7.000E-02
          DXMAX  = 3.000E-01          PURIFY =         F
          MOVIE  =         F          TRUPD  =         T
          TRMAX  = 5.000E-01          TRMIN  = 5.000E-02
          ITBMAT =         5          STPT   =         F
          STSTEP = 1.000E-02          PROJCT=          T

 BEGINNING GEOMETRY SEARCH POINT NSERCH=   0 ...

 COORDINATES OF SYMMETRY UNIQUE ATOMS (ANGS)
   ATOM   CHARGE       X              Y              Z
 ------------------------------------------------------------
 N           7.0   1.2376476500   0.0000000000   1.8861485700
 C           6.0   0.7259571600   0.0000000000   0.6471974800
 SE         34.0   0.0000000000   0.0000000000   2.9296250300
 C           6.0   1.4366016400   0.0000000000  -0.5918213100
 C           6.0   0.7279211300   0.0000000000  -1.7662385700
 BR         35.0   3.3655726900   0.0000000000  -0.6149436800
 H           1.0   1.2547715900   0.0000000000  -2.7145073400
 COORDINATES OF ALL ATOMS ARE (ANGS)
   ATOM   CHARGE       X              Y              Z
 ------------------------------------------------------------
 N           7.0  -1.2376476500   0.0000000000   1.8861485700
 N           7.0   1.2376476500   0.0000000000   1.8861485700
 C           6.0  -0.7259571600   0.0000000000   0.6471974800
 C           6.0   0.7259571600   0.0000000000   0.6471974800
 SE         34.0   0.0000000000   0.0000000000   2.9296250300
 C           6.0  -1.4366016400   0.0000000000  -0.5918213100
 C           6.0   1.4366016400   0.0000000000  -0.5918213100
 C           6.0  -0.7279211300   0.0000000000  -1.7662385700
 C           6.0   0.7279211300   0.0000000000  -1.7662385700
 BR         35.0  -3.3655726900   0.0000000000  -0.6149436800
 BR         35.0   3.3655726900   0.0000000000  -0.6149436800
 H           1.0  -1.2547715900   0.0000000000  -2.7145073400
 H           1.0   1.2547715900   0.0000000000  -2.7145073400

          ********************
          1 ELECTRON INTEGRALS
          ********************
 ...... END OF ONE-ELECTRON INTEGRALS ......
 CPU     0: STEP CPU TIME=     0.02 TOTAL CPU TIME=          2.6 (      0.0 MIN)
 TOTAL WALL CLOCK TIME=          2.7 SECONDS, CPU UTILIZATION IS    97.41%

          -------------
          GUESS OPTIONS
          -------------
          GUESS =HUCKEL            NORB  =       0          NORDER=       0
          MIX   =       F          PRTMO =       F          PUNMO =       F
          TOLZ  = 1.0E-08          TOLE  = 1.0E-05
          SYMDEN=       F          PURIFY=       F

 INITIAL GUESS ORBITALS GENERATED BY HUCKEL   ROUTINE.
 HUCKEL GUESS REQUIRES    392964 WORDS.

 STATISTICS FOR GENERATION OF SYMMETRY ORBITAL -Q- MATRIX
 NUMBER OF CARTESIAN ATOMIC ORBITALS=        217
 NUMBER OF SPHERICAL CONTAMINANTS DROPPED=    14
 NUMBER OF LINEARLY DEPENDENT MOS DROPPED=     0
 TOTAL NUMBER OF MOS IN VARIATION SPACE=     203

 SYMMETRIES FOR INITIAL GUESS ORBITALS FOLLOW.   BOTH SET(S).
    78 ORBITALS ARE OCCUPIED (   50 CORE ORBITALS).
    51=?A1     52=?A1     53=?B1     54=?B1     55=?A1     56=?A1     57=?B1 
    58=?A1     59=?B1     60=?B2     61=?A1     62=?B1     63=?A1     64=?B2 
    65=?A1     66=?A2     67=?B1     68=?B1     69=?A2     70=?A1     71=?B1 
    72=?B2     73=?A1     74=?B2     75=?A1     76=B1      77=?A1     78=?A2 
    79=?B2     80=?A2     81=B2      82=?A2     83=B1      84=A1      85=A1  
    86=A1      87=A1      88=A1  
 ...... END OF INITIAL ORBITAL SELECTION ......
 CPU     0: STEP CPU TIME=     0.19 TOTAL CPU TIME=          2.8 (      0.0 MIN)
 TOTAL WALL CLOCK TIME=          2.9 SECONDS, CPU UTILIZATION IS    95.92%

                    ----------------------
                    AO INTEGRAL TECHNOLOGY
                    ----------------------
     S,P,L SHELL ROTATED AXIS INTEGRALS, REPROGRAMMED BY
        KAZUYA ISHIMURA (IMS) AND JOSE SIERRA (SYNSTAR).
     S,P,D,L SHELL ROTATED AXIS INTEGRALS PROGRAMMED BY
        KAZUYA ISHIMURA (INSTITUTE FOR MOLECULAR SCIENCE).
     S,P,D,F,G SHELL TO TOTAL QUARTET ANGULAR MOMENTUM SUM 5,
        ERIC PROGRAM BY GRAHAM FLETCHER (ELORET AND NASA ADVANCED
        SUPERCOMPUTING DIVISION, AMES RESEARCH CENTER).
     S,P,D,F,G,L SHELL GENERAL RYS QUADRATURE PROGRAMMED BY
        MICHEL DUPUIS (PACIFIC NORTHWEST NATIONAL LABORATORY).

          --------------------
          2 ELECTRON INTEGRALS
          --------------------

 DIRECT SCF METHOD SKIPS INTEGRAL STORAGE ON DISK.
 DIRECT TRANSFORMATION SKIPS AO INTEGRAL STORAGE ON DISK.
  ...... END OF TWO-ELECTRON INTEGRALS .....
 CPU     0: STEP CPU TIME=     0.03 TOTAL CPU TIME=          2.8 (      0.0 MIN)
 TOTAL WALL CLOCK TIME=          3.0 SECONDS, CPU UTILIZATION IS    96.28%

          --------------------------
                 RHF SCF CALCULATION
          --------------------------

     NUCLEAR ENERGY =      1558.4853521688
     MAXIT =  100     NPUNCH=    2
     EXTRAP=T  DAMP=F  SHIFT=F  RSTRCT=F  DIIS=T  DEM=F  SOSCF=F
     DENSITY MATRIX CONV=  2.00E-06
     MEMORY REQUIRED FOR RHF ITERS=    391103 WORDS.

 DIRECT SCF CALCULATION, SCHWRZ=T   FDIFF=T,  DIRTHR=  0.00E+00 NITDIR=10
 SCHWARZ INEQUALITY OVERHEAD:     22416 INTEGRALS, T=        0.01

                                                                                   NONZERO     BLOCKS
 ITER EX DEM     TOTAL ENERGY        E CHANGE  DENSITY CHANGE    DIIS ERROR      INTEGRALS    SKIPPED
   1  0  0    -7879.8186385618 -7879.8186385618   0.543757921   1.433973523       46283869    1321635
          * * *   INITIATING DIIS PROCEDURE   * * *
   2  1  0    -7881.7038652498    -1.8852266880   0.243368883   0.099332352       46323193    1339767
   3  2  0    -7881.7953968596    -0.0915316097   0.090719377   0.039379792       45879796    1424430
   4  3  0    -7881.8193676800    -0.0239708204   0.037564720   0.010899442       45277292    1502116
   5  4  0    -7881.8224536874    -0.0030860074   0.016481019   0.006437951       44520885    1574890
   6  5  0    -7881.8231068134    -0.0006531260   0.017809758   0.002375288       43745737    1636468
   7  6  0    -7881.8233439193    -0.0002371059   0.009979538   0.001644781       43065222    1701292
   8  7  0    -7881.8234324063    -0.0000884871   0.005537797   0.000769769       42562593    1734253
   9  8  0    -7881.8234486481    -0.0000162418   0.001174889   0.000168651       41427642    1815706
  10  9  0    -7881.8234496952    -0.0000010470   0.000157557   0.000077601       39434416    1930658
  11 10  0    -7881.8234497609    -0.0000000658   0.000031478   0.000016133       36830122    2075075
  12 11  0    -7881.8234497683    -0.0000000074   0.000010283   0.000006015       34211447    2199790
  13 12  0    -7881.8234497688    -0.0000000005   0.000003935   0.000001693       32094125    2316457
  14 13  0    -7881.8234497684     0.0000000004   0.000001216   0.000000925       29123003    2444605

          -----------------
          DENSITY CONVERGED
          -----------------
     TIME TO FORM FOCK OPERATORS=      11.6 SECONDS (       0.8 SEC/ITER)
     FOCK TIME ON FIRST ITERATION=       1.0, LAST ITERATION=       0.6
     TIME TO SOLVE SCF EQUATIONS=       0.5 SECONDS (       0.0 SEC/ITER)

 FINAL RHF ENERGY IS    -7881.8234497684 AFTER  14 ITERATIONS

          ------------
          EIGENVECTORS
          ------------

                      1          2          3          4          5
                 -490.0325  -490.0325  -460.9185   -65.1816   -65.1815
                     B1         A1         A1         B1         A1  
    1  N  1  S    0.000002   0.000001   0.000015  -0.000007  -0.000005
    2  N  1  S    0.000020   0.000010   0.000135  -0.000091  -0.000042
    3  N  1  S   -0.000181  -0.000111  -0.000637   0.000779   0.000439
    4  N  1  X    0.000000   0.000003  -0.000005  -0.000002  -0.000017
    5  N  1  Y    0.000000   0.000000  -0.000000  -0.000000   0.000000
    6  N  1  Z   -0.000000   0.000006  -0.000009   0.000001  -0.000024
    7  N  1  X    0.000024  -0.000028  -0.000351  -0.000092   0.000128
    8  N  1  Y    0.000000   0.000000  -0.000000  -0.000000   0.000000
    9  N  1  Z    0.000076   0.000030  -0.000093  -0.000325  -0.000110
   10  N  1 XX    0.000006   0.000001  -0.000071  -0.000023  -0.000003
   11  N  1 YY    0.000002   0.000003   0.000085  -0.000010  -0.000015
   12  N  1 ZZ   -0.000008  -0.000004  -0.000014   0.000033   0.000018
   13  N  1 XY    0.000000   0.000000  -0.000000  -0.000000   0.000000
   14  N  1 XZ   -0.000005  -0.000001  -0.000089   0.000019   0.000003
   15  N  1 YZ    0.000000   0.000000  -0.000000  -0.000000   0.000000
   16  N  2  S   -0.000002   0.000001   0.000015   0.000007  -0.000005
   17  N  2  S   -0.000020   0.000010   0.000135   0.000091  -0.000042
   18  N  2  S    0.000181  -0.000111  -0.000637  -0.000779   0.000439
   19  N  2  X    0.000000  -0.000003   0.000005  -0.000002   0.000017
   20  N  2  Y    0.000000   0.000000  -0.000000  -0.000000   0.000000
   21  N  2  Z    0.000000   0.000006  -0.000009  -0.000001  -0.000024
   22  N  2  X    0.000024   0.000028   0.000351  -0.000092  -0.000128
   23  N  2  Y    0.000000   0.000000  -0.000000  -0.000000   0.000000
   24  N  2  Z   -0.000076   0.000030  -0.000093   0.000325  -0.000110
   25  N  2 XX   -0.000006   0.000001  -0.000071   0.000023  -0.000003
   26  N  2 YY   -0.000002   0.000003   0.000085   0.000010  -0.000015
   27  N  2 ZZ    0.000008  -0.000004  -0.000014  -0.000033   0.000018
   28  N  2 XY    0.000000   0.000000  -0.000000  -0.000000   0.000000
   29  N  2 XZ   -0.000005   0.000001   0.000089   0.000019  -0.000003
   30  N  2 YZ    0.000000   0.000000  -0.000000  -0.000000   0.000000
   31  C  3  S    0.000004  -0.000002  -0.000002  -0.000018   0.000009
   32  C  3  S    0.000037  -0.000021   0.000001  -0.000164   0.000093
   33  C  3  S   -0.000692   0.000239   0.000058   0.002896  -0.001083
   34  C  3  X    0.000008   0.000013  -0.000009  -0.000031  -0.000051
   35  C  3  Y    0.000000   0.000000  -0.000000  -0.000000   0.000000
   36  C  3  Z    0.000004   0.000002   0.000009  -0.000015  -0.000010
   37  C  3  X   -0.000611  -0.000103   0.000061   0.002582   0.000402
   38  C  3  Y    0.000000   0.000000  -0.000000  -0.000000   0.000000
   39  C  3  Z    0.000197  -0.000024   0.000320  -0.000825   0.000202
   40  C  3 XX   -0.000030  -0.000004  -0.000002   0.000141   0.000024
   41  C  3 YY    0.000007  -0.000020  -0.000016  -0.000038   0.000084
   42  C  3 ZZ    0.000023   0.000024   0.000018  -0.000102  -0.000108
   43  C  3 XY    0.000000   0.000000  -0.000000  -0.000000   0.000000
   44  C  3 XZ   -0.000010  -0.000003  -0.000003   0.000036   0.000006
   45  C  3 YZ    0.000000   0.000000  -0.000000  -0.000000   0.000000
   46  C  4  S   -0.000004  -0.000002  -0.000002   0.000018   0.000009
   47  C  4  S   -0.000037  -0.000021   0.000001   0.000164   0.000093
   48  C  4  S    0.000692   0.000239   0.000058  -0.002896  -0.001083
   49  C  4  X    0.000008  -0.000013   0.000009  -0.000031   0.000051
   50  C  4  Y    0.000000   0.000000  -0.000000  -0.000000   0.000000
   51  C  4  Z   -0.000004   0.000002   0.000009   0.000015  -0.000010
   52  C  4  X   -0.000611   0.000103  -0.000061   0.002582  -0.000402
   53  C  4  Y    0.000000   0.000000  -0.000000  -0.000000   0.000000
   54  C  4  Z   -0.000197  -0.000024   0.000320   0.000825   0.000202
   55  C  4 XX    0.000030  -0.000004  -0.000002  -0.000141   0.000024
   56  C  4 YY   -0.000007  -0.000020  -0.000016   0.000038   0.000084
   57  C  4 ZZ   -0.000023   0.000024   0.000018   0.000102  -0.000108
   58  C  4 XY    0.000000   0.000000  -0.000000  -0.000000   0.000000
   59  C  4 XZ   -0.000010   0.000003   0.000003   0.000036  -0.000006
   60  C  4 YZ    0.000000   0.000000  -0.000000  -0.000000   0.000000
   61  SE 5  S    0.000000  -0.000000   0.997050  -0.000000   0.000001
   62  SE 5  S    0.000000   0.000001   0.009739  -0.000000  -0.000004
   63  SE 5  S    0.000000  -0.000001  -0.001722  -0.000000   0.000005
   64  SE 5  S    0.000000   0.000013   0.001094  -0.000000  -0.000051
   65  SE 5  S    0.000000   0.000033  -0.000123  -0.000000  -0.000182
   66  SE 5  X    0.000000   0.000000  -0.000000   0.000000   0.000000
   67  SE 5  Y    0.000000   0.000000  -0.000000  -0.000000   0.000000
   68  SE 5  Z    0.000000  -0.000001  -0.000019  -0.000000   0.000005
   69  SE 5  X    0.000000   0.000000  -0.000000  -0.000000   0.000000
   70  SE 5  Y    0.000000   0.000000  -0.000000  -0.000000   0.000000
   71  SE 5  Z    0.000000   0.000004   0.000052  -0.000000  -0.000018
   72  SE 5  X    0.000004   0.000000  -0.000000  -0.000011   0.000000
   73  SE 5  Y    0.000000   0.000000  -0.000000  -0.000000   0.000000
   74  SE 5  Z    0.000000  -0.000029  -0.000372  -0.000000   0.000135
   75  SE 5  X    0.000005   0.000000  -0.000000  -0.000018   0.000000
   76  SE 5  Y    0.000000   0.000000  -0.000000  -0.000000   0.000000
   77  SE 5  Z    0.000000  -0.000009   0.000055  -0.000000   0.000054
   78  SE 5 XX    0.000000   0.000001  -0.000008  -0.000000  -0.000003
   79  SE 5 YY    0.000000   0.000000   0.000005  -0.000000  -0.000002
   80  SE 5 ZZ    0.000000  -0.000001   0.000003  -0.000000   0.000005
   81  SE 5 XY    0.000000   0.000000  -0.000000  -0.000000   0.000000
   82  SE 5 XZ   -0.000001   0.000000  -0.000000   0.000004   0.000000
   83  SE 5 YZ    0.000000   0.000000  -0.000000  -0.000000   0.000000
   84  SE 5 XX    0.000000  -0.000002   0.000097  -0.000000   0.000009
   85  SE 5 YY    0.000000  -0.000007  -0.000110  -0.000000   0.000033
   86  SE 5 ZZ    0.000000   0.000008   0.000014  -0.000000  -0.000042
   87  SE 5 XY    0.000000   0.000000  -0.000000  -0.000000   0.000000
   88  SE 5 XZ    0.000007   0.000000  -0.000000  -0.000036   0.000000
   89  SE 5 YZ    0.000000   0.000000  -0.000000  -0.000000   0.000000
   90  C  6  S    0.000000   0.000003  -0.000002   0.000002  -0.000009
   91  C  6  S   -0.000010   0.000006  -0.000016   0.000088   0.000022
   92  C  6  S    0.000224  -0.000202   0.000335  -0.001047   0.000831
   93  C  6  X   -0.000011  -0.000008  -0.000004   0.000028   0.000017
   94  C  6  Y    0.000000   0.000000  -0.000000  -0.000000   0.000000
   95  C  6  Z    0.000004   0.000001   0.000006  -0.000018  -0.000006
   96  C  6  X    0.000254  -0.000093   0.000147  -0.000824   0.000704
   97  C  6  Y    0.000000   0.000000  -0.000000  -0.000000   0.000000
   98  C  6  Z   -0.000079  -0.000026  -0.000015   0.000316   0.000114
   99  C  6 XX   -0.000033  -0.000042   0.000006   0.000103   0.000142
  100  C  6 YY    0.000022   0.000032  -0.000006  -0.000074  -0.000122
  101  C  6 ZZ    0.000012   0.000009  -0.000000  -0.000029  -0.000020
  102  C  6 XY    0.000000   0.000000  -0.000000  -0.000000   0.000000
  103  C  6 XZ   -0.000001  -0.000002  -0.000004   0.000000   0.000006
  104  C  6 YZ    0.000000   0.000000  -0.000000  -0.000000   0.000000
  105  C  7  S   -0.000000   0.000003  -0.000002  -0.000002  -0.000009
  106  C  7  S    0.000010   0.000006  -0.000016  -0.000088   0.000022
  107  C  7  S   -0.000224  -0.000202   0.000335   0.001047   0.000831
  108  C  7  X   -0.000011   0.000008   0.000004   0.000028  -0.000017
  109  C  7  Y    0.000000   0.000000  -0.000000  -0.000000   0.000000
  110  C  7  Z   -0.000004   0.000001   0.000006   0.000018  -0.000006
  111  C  7  X    0.000254   0.000093  -0.000147  -0.000824  -0.000704
  112  C  7  Y    0.000000   0.000000  -0.000000  -0.000000   0.000000
  113  C  7  Z    0.000079  -0.000026  -0.000015  -0.000316   0.000114
  114  C  7 XX    0.000033  -0.000042   0.000006  -0.000103   0.000142
  115  C  7 YY   -0.000022   0.000032  -0.000006   0.000074  -0.000122
  116  C  7 ZZ   -0.000012   0.000009  -0.000000   0.000029  -0.000020
  117  C  7 XY    0.000000   0.000000  -0.000000  -0.000000   0.000000
  118  C  7 XZ   -0.000001   0.000002   0.000004   0.000000  -0.000006
  119  C  7 YZ    0.000000   0.000000  -0.000000  -0.000000   0.000000
  120  C  8  S    0.000002  -0.000002  -0.000000  -0.000011   0.000009
  121  C  8  S    0.000014  -0.000028  -0.000003  -0.000065   0.000119
  122  C  8  S   -0.000627   0.000144  -0.000132   0.002638  -0.000680
  123  C  8  X    0.000011   0.000009   0.000002  -0.000044  -0.000036
  124  C  8  Y    0.000000   0.000000  -0.000000  -0.000000   0.000000
  125  C  8  Z   -0.000004  -0.000002  -0.000007   0.000016   0.000006
  126  C  8  X   -0.000345  -0.000054   0.000031   0.001474   0.000195
  127  C  8  Y    0.000000   0.000000  -0.000000  -0.000000   0.000000
  128  C  8  Z   -0.000081   0.000084  -0.000055   0.000253  -0.000453
  129  C  8 XX   -0.000021  -0.000000   0.000002   0.000101   0.000008
  130  C  8 YY    0.000005  -0.000019  -0.000000  -0.000030   0.000079
  131  C  8 ZZ    0.000016   0.000019  -0.000002  -0.000072  -0.000086
  132  C  8 XY    0.000000   0.000000  -0.000000  -0.000000   0.000000
  133  C  8 XZ    0.000007  -0.000000   0.000004  -0.000021   0.000007
  134  C  8 YZ    0.000000   0.000000  -0.000000  -0.000000   0.000000
  135  C  9  S   -0.000002  -0.000002  -0.000000   0.000011   0.000009
  136  C  9  S   -0.000014  -0.000028  -0.000003   0.000065   0.000119
  137  C  9  S    0.000627   0.000144  -0.000132  -0.002638  -0.000680
  138  C  9  X    0.000011  -0.000009  -0.000002  -0.000044   0.000036
  139  C  9  Y    0.000000   0.000000  -0.000000  -0.000000   0.000000
  140  C  9  Z    0.000004  -0.000002  -0.000007  -0.000016   0.000006
  141  C  9  X   -0.000345   0.000054  -0.000031   0.001474  -0.000195
  142  C  9  Y    0.000000   0.000000  -0.000000  -0.000000   0.000000
  143  C  9  Z    0.000081   0.000084  -0.000055  -0.000253  -0.000453
  144  C  9 XX    0.000021  -0.000000   0.000002  -0.000101   0.000008
  145  C  9 YY   -0.000005  -0.000019  -0.000000   0.000030   0.000079
  146  C  9 ZZ   -0.000016   0.000019  -0.000002   0.000072  -0.000086
  147  C  9 XY    0.000000   0.000000  -0.000000  -0.000000   0.000000
  148  C  9 XZ    0.000007   0.000000  -0.000004  -0.000021  -0.000007
  149  C  9 YZ    0.000000   0.000000  -0.000000  -0.000000   0.000000
  150  BR10  S    0.704998   0.704998  -0.000000  -0.230781  -0.230781
  151  BR10  S    0.006945   0.006944   0.000001   0.736502   0.736508
  152  BR10  S   -0.001235  -0.001236   0.000001   0.012886   0.012893
  153  BR10  S    0.000705   0.000686   0.000013  -0.003336  -0.003252
  154  BR10  S   -0.000390  -0.000433   0.000004   0.001983   0.002171
  155  BR10  X    0.000006   0.000005   0.000000   0.000500   0.000504
  156  BR10  Y    0.000000   0.000000  -0.000000  -0.000000   0.000000
  157  BR10  Z    0.000000   0.000000   0.000001   0.000013   0.000013
  158  BR10  X   -0.000011  -0.000008  -0.000001   0.000069   0.000053
  159  BR10  Y    0.000000   0.000000  -0.000000  -0.000000   0.000000
  160  BR10  Z   -0.000000  -0.000000  -0.000002   0.000002   0.000001
  161  BR10  X    0.000060   0.000034   0.000009  -0.000200  -0.000086
  162  BR10  Y    0.000000   0.000000  -0.000000  -0.000000   0.000000
  163  BR10  Z    0.000003   0.000001   0.000011  -0.000011  -0.000003
  164  BR10  X   -0.000087  -0.000094  -0.000003   0.000493   0.000521
  165  BR10  Y    0.000000   0.000000  -0.000000  -0.000000   0.000000
  166  BR10  Z   -0.000001   0.000001  -0.000022   0.000005  -0.000007
  167  BR10 XX    0.000005   0.000005   0.000000  -0.000001  -0.000001
  168  BR10 YY   -0.000005  -0.000004  -0.000001   0.000013   0.000008
  169  BR10 ZZ    0.000001  -0.000001   0.000001  -0.000013  -0.000007
  170  BR10 XY    0.000000   0.000000  -0.000000  -0.000000   0.000000
  171  BR10 XZ   -0.000000  -0.000000   0.000001   0.000002   0.000002
  172  BR10 YZ    0.000000   0.000000  -0.000000  -0.000000   0.000000
  173  BR10 XX   -0.000011  -0.000014  -0.000001   0.000100   0.000111
  174  BR10 YY    0.000018   0.000013   0.000004  -0.000104  -0.000083
  175  BR10 ZZ   -0.000007   0.000000  -0.000003   0.000004  -0.000028
  176  BR10 XY    0.000000   0.000000  -0.000000  -0.000000   0.000000
  177  BR10 XZ    0.000001   0.000001  -0.000004  -0.000004  -0.000005
  178  BR10 YZ    0.000000   0.000000  -0.000000  -0.000000   0.000000
  179  BR11  S   -0.704998   0.704998  -0.000000   0.230781  -0.230781
  180  BR11  S   -0.006945   0.006944   0.000001  -0.736502   0.736508
  181  BR11  S    0.001235  -0.001236   0.000001  -0.012886   0.012893
  182  BR11  S   -0.000705   0.000686   0.000013   0.003336  -0.003252
  183  BR11  S    0.000390  -0.000433   0.000004  -0.001983   0.002171
  184  BR11  X    0.000006  -0.000005  -0.000000   0.000500  -0.000504
  185  BR11  Y    0.000000   0.000000  -0.000000  -0.000000   0.000000
  186  BR11  Z   -0.000000   0.000000   0.000001  -0.000013   0.000013
  187  BR11  X   -0.000011   0.000008   0.000001   0.000069  -0.000053
  188  BR11  Y    0.000000   0.000000  -0.000000  -0.000000   0.000000
  189  BR11  Z    0.000000  -0.000000  -0.000002  -0.000002   0.000001
  190  BR11  X    0.000060  -0.000034  -0.000009  -0.000200   0.000086
  191  BR11  Y    0.000000   0.000000  -0.000000  -0.000000   0.000000
  192  BR11  Z   -0.000003   0.000001   0.000011   0.000011  -0.000003
  193  BR11  X   -0.000087   0.000094   0.000003   0.000493  -0.000521
  194  BR11  Y    0.000000   0.000000  -0.000000  -0.000000   0.000000
  195  BR11  Z    0.000001   0.000001  -0.000022  -0.000005  -0.000007
  196  BR11 XX   -0.000005   0.000005   0.000000   0.000001  -0.000001
  197  BR11 YY    0.000005  -0.000004  -0.000001  -0.000013   0.000008
  198  BR11 ZZ   -0.000001  -0.000001   0.000001   0.000013  -0.000007
  199  BR11 XY    0.000000   0.000000  -0.000000  -0.000000   0.000000
  200  BR11 XZ   -0.000000   0.000000  -0.000001   0.000002  -0.000002
  201  BR11 YZ    0.000000   0.000000  -0.000000  -0.000000   0.000000
  202  BR11 XX    0.000011  -0.000014  -0.000001  -0.000100   0.000111
  203  BR11 YY   -0.000018   0.000013   0.000004   0.000104  -0.000083
  204  BR11 ZZ    0.000007   0.000000  -0.000003  -0.000004  -0.000028
  205  BR11 XY    0.000000   0.000000  -0.000000  -0.000000   0.000000
  206  BR11 XZ    0.000001  -0.000001   0.000004  -0.000004   0.000005
  207  BR11 YZ    0.000000   0.000000  -0.000000  -0.000000   0.000000
  208  H 12  S   -0.000017  -0.000022   0.000003   0.000063   0.000084
  209  H 12  S   -0.000003   0.000038  -0.000008  -0.000034  -0.000215
  210  H 12  X    0.000015   0.000005  -0.000004  -0.000065  -0.000021
  211  H 12  Y    0.000000   0.000000  -0.000000  -0.000000   0.000000
  212  H 12  Z   -0.000001  -0.000001   0.000001   0.000002   0.000003
  213  H 13  S    0.000017  -0.000022   0.000003  -0.000063   0.000084
  214  H 13  S    0.000003   0.000038  -0.000008   0.000034  -0.000215
  215  H 13  X    0.000015  -0.000005   0.000004  -0.000065   0.000021
  216  H 13  Y    0.000000   0.000000  -0.000000  -0.000000   0.000000
  217  H 13  Z    0.000001  -0.000001   0.000001  -0.000002   0.000003

                      6          7          8          9         10
                  -60.7294   -58.5409   -58.5409   -58.5394   -58.5394
                     A1         B1         A1         A2         B2  
    1  N  1  S   -0.000057  -0.000003  -0.000004   0.000000   0.000000
    2  N  1  S   -0.000525  -0.000071  -0.000059   0.000000   0.000000
    3  N  1  S    0.002641   0.000803   0.000594   0.000000   0.000000
    4  N  1  X    0.000008   0.000008   0.000002   0.000000   0.000000
    5  N  1  Y    0.000000  -0.000000   0.000000   0.000001   0.000005
    6  N  1  Z    0.000036   0.000007  -0.000004   0.000000   0.000000
    7  N  1  X    0.001434  -0.000115   0.000033   0.000000   0.000000
    8  N  1  Y    0.000000  -0.000000   0.000000   0.000023  -0.000004
    9  N  1  Z    0.000091  -0.000284  -0.000238   0.000000   0.000000
   10  N  1 XX    0.000276  -0.000028  -0.000020   0.000000   0.000000
   11  N  1 YY   -0.000338   0.000024   0.000009   0.000000   0.000000
   12  N  1 ZZ    0.000062   0.000004   0.000011   0.000000   0.000000
   13  N  1 XY    0.000000  -0.000000   0.000000   0.000008   0.000005
   14  N  1 XZ    0.000302   0.000014  -0.000006   0.000000   0.000000
   15  N  1 YZ    0.000000  -0.000000   0.000000  -0.000008  -0.000004
   16  N  2  S   -0.000057   0.000003  -0.000004   0.000000   0.000000
   17  N  2  S   -0.000525   0.000071  -0.000059   0.000000   0.000000
   18  N  2  S    0.002641  -0.000803   0.000594   0.000000   0.000000
   19  N  2  X   -0.000008   0.000008  -0.000002   0.000000   0.000000
   20  N  2  Y    0.000000  -0.000000   0.000000  -0.000001   0.000005
   21  N  2  Z    0.000036  -0.000007  -0.000004   0.000000   0.000000
   22  N  2  X   -0.001434  -0.000115  -0.000033   0.000000   0.000000
   23  N  2  Y    0.000000  -0.000000   0.000000  -0.000023  -0.000004
   24  N  2  Z    0.000091   0.000284  -0.000238   0.000000   0.000000
   25  N  2 XX    0.000276   0.000028  -0.000020   0.000000   0.000000
   26  N  2 YY   -0.000338  -0.000024   0.000009   0.000000   0.000000
   27  N  2 ZZ    0.000062  -0.000004   0.000011   0.000000   0.000000
   28  N  2 XY    0.000000  -0.000000   0.000000   0.000008  -0.000005
   29  N  2 XZ   -0.000302   0.000014   0.000006   0.000000   0.000000
   30  N  2 YZ    0.000000  -0.000000   0.000000   0.000008  -0.000004
   31  C  3  S    0.000011  -0.000017   0.000000   0.000000   0.000000
   32  C  3  S    0.000020  -0.000174  -0.000018   0.000000   0.000000
   33  C  3  S   -0.000387   0.003811   0.000168   0.000000   0.000000
   34  C  3  X    0.000052  -0.000023  -0.000044   0.000000   0.000000
   35  C  3  Y    0.000000  -0.000000   0.000000   0.000021   0.000009
   36  C  3  Z   -0.000037  -0.000015  -0.000007   0.000000   0.000000
   37  C  3  X   -0.000254   0.001947   0.000460   0.000000   0.000000
   38  C  3  Y    0.000000  -0.000000   0.000000  -0.000122  -0.000024
   39  C  3  Z   -0.001789  -0.002017  -0.000888   0.000000   0.000000
   40  C  3 XX    0.000020  -0.000001  -0.000044   0.000000   0.000000
   41  C  3 YY    0.000086  -0.000030   0.000029   0.000000   0.000000
   42  C  3 ZZ   -0.000106   0.000031   0.000015   0.000000   0.000000
   43  C  3 XY    0.000000  -0.000000   0.000000   0.000005   0.000014
   44  C  3 XZ    0.000042   0.000029   0.000035   0.000000   0.000000
   45  C  3 YZ    0.000000  -0.000000   0.000000  -0.000008  -0.000009
   46  C  4  S    0.000011   0.000017   0.000000   0.000000   0.000000
   47  C  4  S    0.000020   0.000174  -0.000018   0.000000   0.000000
   48  C  4  S   -0.000387  -0.003811   0.000168   0.000000   0.000000
   49  C  4  X   -0.000052  -0.000023   0.000044   0.000000   0.000000
   50  C  4  Y    0.000000  -0.000000   0.000000  -0.000021   0.000009
   51  C  4  Z   -0.000037   0.000015  -0.000007   0.000000   0.000000
   52  C  4  X    0.000254   0.001947  -0.000460   0.000000   0.000000
   53  C  4  Y    0.000000  -0.000000   0.000000   0.000122  -0.000024
   54  C  4  Z   -0.001789   0.002017  -0.000888   0.000000   0.000000
   55  C  4 XX    0.000020   0.000001  -0.000044   0.000000   0.000000
   56  C  4 YY    0.000086   0.000030   0.000029   0.000000   0.000000
   57  C  4 ZZ   -0.000106  -0.000031   0.000015   0.000000   0.000000
   58  C  4 XY    0.000000  -0.000000   0.000000   0.000005  -0.000014
   59  C  4 XZ   -0.000042   0.000029  -0.000035   0.000000   0.000000
   60  C  4 YZ    0.000000  -0.000000   0.000000   0.000008  -0.000009
   61  SE 5  S   -0.325409  -0.000000   0.000000   0.000000   0.000000
   62  SE 5  S    1.041460  -0.000000  -0.000004   0.000000   0.000000
   63  SE 5  S    0.017973  -0.000000  -0.000010   0.000000   0.000000
   64  SE 5  S   -0.005261  -0.000000  -0.000066   0.000000   0.000000
   65  SE 5  S    0.001545  -0.000000   0.000264   0.000000   0.000000
   66  SE 5  X    0.000000  -0.000002   0.000000   0.000000   0.000000
   67  SE 5  Y    0.000000  -0.000000   0.000000   0.000000   0.000001
   68  SE 5  Z   -0.000531  -0.000000  -0.000002   0.000000   0.000000
   69  SE 5  X    0.000000   0.000007   0.000000   0.000000   0.000000
   70  SE 5  Y    0.000000  -0.000000   0.000000   0.000000  -0.000002
   71  SE 5  Z   -0.000245  -0.000000   0.000007   0.000000   0.000000
   72  SE 5  X    0.000000  -0.000071   0.000000   0.000000   0.000000
   73  SE 5  Y    0.000000  -0.000000   0.000000   0.000000   0.000008
   74  SE 5  Z    0.001362  -0.000000  -0.000048   0.000000   0.000000
   75  SE 5  X    0.000000  -0.000071   0.000000   0.000000   0.000000
   76  SE 5  Y    0.000000  -0.000000   0.000000   0.000000  -0.000002
   77  SE 5  Z   -0.000538  -0.000000  -0.000102   0.000000   0.000000
   78  SE 5 XX    0.000042  -0.000000   0.000000   0.000000   0.000000
   79  SE 5 YY   -0.000001  -0.000000   0.000002   0.000000   0.000000
   80  SE 5 ZZ   -0.000042  -0.000000  -0.000002   0.000000   0.000000
   81  SE 5 XY    0.000000  -0.000000   0.000000  -0.000000   0.000000
   82  SE 5 XZ    0.000000  -0.000004   0.000000   0.000000   0.000000
   83  SE 5 YZ    0.000000  -0.000000   0.000000   0.000000   0.000001
   84  SE 5 XX   -0.000317  -0.000000  -0.000001   0.000000   0.000000
   85  SE 5 YY    0.000307  -0.000000  -0.000017   0.000000   0.000000
   86  SE 5 ZZ    0.000010  -0.000000   0.000017   0.000000   0.000000
   87  SE 5 XY    0.000000  -0.000000   0.000000   0.000002   0.000000
   88  SE 5 XZ    0.000000   0.000035   0.000000   0.000000   0.000000
   89  SE 5 YZ    0.000000  -0.000000   0.000000   0.000000  -0.000006
   90  C  6  S    0.000010  -0.000001  -0.000012   0.000000   0.000000
   91  C  6  S    0.000092   0.000012  -0.000083   0.000000   0.000000
   92  C  6  S   -0.001750  -0.002904  -0.000415   0.000000   0.000000
   93  C  6  X    0.000022   0.000064   0.000061   0.000000   0.000000
   94  C  6  Y    0.000000  -0.000000   0.000000  -0.000003   0.000002
   95  C  6  Z   -0.000031  -0.000009  -0.000004   0.000000   0.000000
   96  C  6  X   -0.000816  -0.003366  -0.001965   0.000000   0.000000
   97  C  6  Y    0.000000  -0.000000   0.000000   0.000082   0.000016
   98  C  6  Z   -0.000013   0.000274   0.000005   0.000000   0.000000
   99  C  6 XX   -0.000028   0.000160   0.000172   0.000000   0.000000
  100  C  6 YY    0.000036  -0.000048  -0.000091   0.000000   0.000000
  101  C  6 ZZ   -0.000008  -0.000112  -0.000081   0.000000   0.000000
  102  C  6 XY    0.000000  -0.000000   0.000000  -0.000044  -0.000051
  103  C  6 XZ    0.000012   0.000012   0.000003   0.000000   0.000000
  104  C  6 YZ    0.000000  -0.000000   0.000000  -0.000001  -0.000002
  105  C  7  S    0.000010   0.000001  -0.000012   0.000000   0.000000
  106  C  7  S    0.000092  -0.000012  -0.000083   0.000000   0.000000
  107  C  7  S   -0.001750   0.002904  -0.000415   0.000000   0.000000
  108  C  7  X   -0.000022   0.000064  -0.000061   0.000000   0.000000
  109  C  7  Y    0.000000  -0.000000   0.000000   0.000003   0.000002
  110  C  7  Z   -0.000031   0.000009  -0.000004   0.000000   0.000000
  111  C  7  X    0.000816  -0.003366   0.001965   0.000000   0.000000
  112  C  7  Y    0.000000  -0.000000   0.000000  -0.000082   0.000016
  113  C  7  Z   -0.000013  -0.000274   0.000005   0.000000   0.000000
  114  C  7 XX   -0.000028  -0.000160   0.000172   0.000000   0.000000
  115  C  7 YY    0.000036   0.000048  -0.000091   0.000000   0.000000
  116  C  7 ZZ   -0.000008   0.000112  -0.000081   0.000000   0.000000
  117  C  7 XY    0.000000  -0.000000   0.000000  -0.000044   0.000051
  118  C  7 XZ   -0.000012   0.000012  -0.000003   0.000000   0.000000
  119  C  7 YZ    0.000000  -0.000000   0.000000   0.000001  -0.000002
  120  C  8  S    0.000001  -0.000014   0.000001   0.000000   0.000000
  121  C  8  S    0.000029  -0.000097   0.000017   0.000000   0.000000
  122  C  8  S    0.000615   0.003933   0.000442   0.000000   0.000000
  123  C  8  X   -0.000012  -0.000036  -0.000052   0.000000   0.000000
  124  C  8  Y    0.000000  -0.000000   0.000000   0.000020   0.000009
  125  C  8  Z    0.000035   0.000016   0.000011   0.000000   0.000000
  126  C  8  X   -0.000125   0.001273   0.000352   0.000000   0.000000
  127  C  8  Y    0.000000  -0.000000   0.000000  -0.000108  -0.000027
  128  C  8  Z    0.000259   0.001817   0.000573   0.000000   0.000000
  129  C  8 XX   -0.000014  -0.000005  -0.000045   0.000000   0.000000
  130  C  8 YY    0.000005  -0.000047   0.000008   0.000000   0.000000
  131  C  8 ZZ    0.000009   0.000052   0.000037   0.000000   0.000000
  132  C  8 XY    0.000000  -0.000000   0.000000   0.000008   0.000017
  133  C  8 XZ   -0.000019  -0.000010  -0.000004   0.000000   0.000000
  134  C  8 YZ    0.000000  -0.000000   0.000000   0.000002   0.000009
  135  C  9  S    0.000001   0.000014   0.000001   0.000000   0.000000
  136  C  9  S    0.000029   0.000097   0.000017   0.000000   0.000000
  137  C  9  S    0.000615  -0.003933   0.000442   0.000000   0.000000
  138  C  9  X    0.000012  -0.000036   0.000052   0.000000   0.000000
  139  C  9  Y    0.000000  -0.000000   0.000000  -0.000020   0.000009
  140  C  9  Z    0.000035  -0.000016   0.000011   0.000000   0.000000
  141  C  9  X    0.000125   0.001273  -0.000352   0.000000   0.000000
  142  C  9  Y    0.000000  -0.000000   0.000000   0.000108  -0.000027
  143  C  9  Z    0.000259  -0.001817   0.000573   0.000000   0.000000
  144  C  9 XX   -0.000014   0.000005  -0.000045   0.000000   0.000000
  145  C  9 YY    0.000005   0.000047   0.000008   0.000000   0.000000
  146  C  9 ZZ    0.000009  -0.000052   0.000037   0.000000   0.000000
  147  C  9 XY    0.000000  -0.000000   0.000000   0.000008  -0.000017
  148  C  9 XZ    0.000019  -0.000010   0.000004   0.000000   0.000000
  149  C  9 YZ    0.000000  -0.000000   0.000000  -0.000002   0.000009
  150  BR10  S    0.000000   0.000174   0.000173   0.000000   0.000000
  151  BR10  S   -0.000004  -0.000554  -0.000551   0.000000   0.000000
  152  BR10  S   -0.000002   0.000078   0.000082   0.000000   0.000000
  153  BR10  S   -0.000046   0.000132   0.000180   0.000000   0.000000
  154  BR10  S   -0.000073  -0.001339  -0.001179   0.000000   0.000000
  155  BR10  X   -0.000002   0.703963   0.703969   0.000000   0.000000
  156  BR10  Y    0.000000  -0.000000   0.000000   0.704480   0.704481
  157  BR10  Z   -0.000002   0.025682   0.025585   0.000000   0.000000
  158  BR10  X    0.000009   0.007065   0.007055   0.000000   0.000000
  159  BR10  Y    0.000000  -0.000000   0.000000   0.006912   0.006911
  160  BR10  Z    0.000009   0.000259   0.000255   0.000000   0.000000
  161  BR10  X   -0.000055  -0.001390  -0.001313   0.000000   0.000000
  162  BR10  Y    0.000000  -0.000000   0.000000  -0.000837  -0.000832
  163  BR10  Z   -0.000043  -0.000056  -0.000043   0.000000   0.000000
  164  BR10  X   -0.000003  -0.000077  -0.000047   0.000000   0.000000
  165  BR10  Y    0.000000  -0.000000   0.000000   0.000343   0.000346
  166  BR10  Z    0.000095   0.000035   0.000029   0.000000   0.000000
  167  BR10 XX    0.000000   0.000076   0.000077   0.000000   0.000000
  168  BR10 YY    0.000003  -0.000032  -0.000035   0.000000   0.000000
  169  BR10 ZZ   -0.000003  -0.000044  -0.000042   0.000000   0.000000
  170  BR10 XY    0.000000  -0.000000   0.000000   0.000037   0.000036
  171  BR10 XZ   -0.000006   0.000002   0.000002   0.000000   0.000000
  172  BR10 YZ    0.000000  -0.000000   0.000000   0.000001   0.000001
  173  BR10 XX   -0.000002  -0.000279  -0.000274   0.000000   0.000000
  174  BR10 YY   -0.000011   0.000112   0.000122   0.000000   0.000000
  175  BR10 ZZ    0.000013   0.000166   0.000152   0.000000   0.000000
  176  BR10 XY    0.000000  -0.000000   0.000000  -0.000027  -0.000022
  177  BR10 XZ    0.000022  -0.000008  -0.000002   0.000000   0.000000
  178  BR10 YZ    0.000000  -0.000000   0.000000  -0.000001  -0.000000
  179  BR11  S    0.000000  -0.000174   0.000173   0.000000   0.000000
  180  BR11  S   -0.000004   0.000554  -0.000551   0.000000   0.000000
  181  BR11  S   -0.000002  -0.000078   0.000082   0.000000   0.000000
  182  BR11  S   -0.000046  -0.000132   0.000180   0.000000   0.000000
  183  BR11  S   -0.000073   0.001339  -0.001179   0.000000   0.000000
  184  BR11  X    0.000002   0.703963  -0.703969   0.000000   0.000000
  185  BR11  Y    0.000000  -0.000000   0.000000  -0.704480   0.704481
  186  BR11  Z   -0.000002  -0.025682   0.025585   0.000000   0.000000
  187  BR11  X   -0.000009   0.007065  -0.007055   0.000000   0.000000
  188  BR11  Y    0.000000  -0.000000   0.000000  -0.006912   0.006911
  189  BR11  Z    0.000009  -0.000259   0.000255   0.000000   0.000000
  190  BR11  X    0.000055  -0.001390   0.001313   0.000000   0.000000
  191  BR11  Y    0.000000  -0.000000   0.000000   0.000837  -0.000832
  192  BR11  Z   -0.000043   0.000056  -0.000043   0.000000   0.000000
  193  BR11  X    0.000003  -0.000077   0.000047   0.000000   0.000000
  194  BR11  Y    0.000000  -0.000000   0.000000  -0.000343   0.000346
  195  BR11  Z    0.000095  -0.000035   0.000029   0.000000   0.000000
  196  BR11 XX    0.000000  -0.000076   0.000077   0.000000   0.000000
  197  BR11 YY    0.000003   0.000032  -0.000035   0.000000   0.000000
  198  BR11 ZZ   -0.000003   0.000044  -0.000042   0.000000   0.000000
  199  BR11 XY    0.000000  -0.000000   0.000000   0.000037  -0.000036
  200  BR11 XZ    0.000006   0.000002  -0.000002   0.000000   0.000000
  201  BR11 YZ    0.000000  -0.000000   0.000000  -0.000001   0.000001
  202  BR11 XX   -0.000002   0.000279  -0.000274   0.000000   0.000000
  203  BR11 YY   -0.000011  -0.000112   0.000122   0.000000   0.000000
  204  BR11 ZZ    0.000013  -0.000166   0.000152   0.000000   0.000000
  205  BR11 XY    0.000000  -0.000000   0.000000  -0.000027   0.000022
  206  BR11 XZ   -0.000022  -0.000008   0.000002   0.000000   0.000000
  207  BR11 YZ    0.000000  -0.000000   0.000000   0.000001  -0.000000
  208  H 12  S   -0.000013   0.000080   0.000070   0.000000   0.000000
  209  H 12  S    0.000032   0.000490   0.000249   0.000000   0.000000
  210  H 12  X    0.000017  -0.000031  -0.000002   0.000000   0.000000
  211  H 12  Y    0.000000  -0.000000   0.000000   0.000013   0.000006
  212  H 12  Z   -0.000006  -0.000024  -0.000003   0.000000   0.000000
  213  H 13  S   -0.000013  -0.000080   0.000070   0.000000   0.000000
  214  H 13  S    0.000032  -0.000490   0.000249   0.000000   0.000000
  215  H 13  X   -0.000017  -0.000031   0.000002   0.000000   0.000000
  216  H 13  Y    0.000000  -0.000000   0.000000  -0.000013   0.000006
  217  H 13  Z   -0.000006   0.000024  -0.000003   0.000000   0.000000

                     11         12         13         14         15
                  -58.5394   -58.5394   -54.3337   -54.3334   -54.3327
                     B1         A1         B1         B2         A1  
    1  N  1  S   -0.000001  -0.000001   0.000035   0.000000   0.000024
    2  N  1  S    0.000003  -0.000002   0.000298   0.000000   0.000251
    3  N  1  S   -0.000093   0.000204  -0.002160   0.000000  -0.001150
    4  N  1  X   -0.000009  -0.000011  -0.000011   0.000000  -0.000028
    5  N  1  Y   -0.000000   0.000000   0.000000  -0.000009   0.000000
    6  N  1  Z    0.000002  -0.000006   0.000003   0.000000  -0.000022
    7  N  1  X   -0.000196  -0.000007  -0.001372   0.000000  -0.000679
    8  N  1  Y   -0.000000   0.000000   0.000000   0.000154   0.000000
    9  N  1  Z   -0.000112  -0.000096  -0.000870   0.000000  -0.000505
   10  N  1 XX   -0.000018  -0.000017  -0.000106   0.000000  -0.000161
   11  N  1 YY   -0.000009   0.000009   0.000148   0.000000   0.000107
   12  N  1 ZZ    0.000028   0.000008  -0.000042   0.000000   0.000054
   13  N  1 XY   -0.000000   0.000000   0.000000   0.000099   0.000000
   14  N  1 XZ    0.000020   0.000006  -0.000222   0.000000  -0.000121
   15  N  1 YZ   -0.000000   0.000000   0.000000   0.000045   0.000000
   16  N  2  S    0.000001  -0.000001  -0.000035   0.000000   0.000024
   17  N  2  S   -0.000003  -0.000002  -0.000298   0.000000   0.000251
   18  N  2  S    0.000093   0.000204   0.002160   0.000000  -0.001150
   19  N  2  X   -0.000009   0.000011  -0.000011   0.000000   0.000028
   20  N  2  Y   -0.000000   0.000000   0.000000  -0.000009   0.000000
   21  N  2  Z   -0.000002  -0.000006  -0.000003   0.000000  -0.000022
   22  N  2  X   -0.000196   0.000007  -0.001372   0.000000   0.000679
   23  N  2  Y   -0.000000   0.000000   0.000000   0.000154   0.000000
   24  N  2  Z    0.000112  -0.000096   0.000870   0.000000  -0.000505
   25  N  2 XX    0.000018  -0.000017   0.000106   0.000000  -0.000161
   26  N  2 YY    0.000009   0.000009  -0.000148   0.000000   0.000107
   27  N  2 ZZ   -0.000028   0.000008   0.000042   0.000000   0.000054
   28  N  2 XY   -0.000000   0.000000   0.000000  -0.000099   0.000000
   29  N  2 XZ    0.000020  -0.000006  -0.000222   0.000000   0.000121
   30  N  2 YZ   -0.000000   0.000000   0.000000   0.000045   0.000000
   31  C  3  S    0.000005   0.000010  -0.000018   0.000000   0.000003
   32  C  3  S    0.000054   0.000085  -0.000128   0.000000   0.000111
   33  C  3  S   -0.000588  -0.001694   0.002410   0.000000   0.000665
   34  C  3  X   -0.000023  -0.000013  -0.000005   0.000000   0.000034
   35  C  3  Y   -0.000000   0.000000   0.000000   0.000002   0.000000
   36  C  3  Z   -0.000017   0.000003  -0.000004   0.000000   0.000065
   37  C  3  X    0.002775   0.000775   0.003218   0.000000  -0.000236
   38  C  3  Y   -0.000000   0.000000   0.000000  -0.000088   0.000000
   39  C  3  Z    0.001843   0.000487   0.001774   0.000000  -0.000765
   40  C  3 XX    0.000015  -0.000020   0.000073   0.000000  -0.000040
   41  C  3 YY    0.000029   0.000049  -0.000078   0.000000   0.000035
   42  C  3 ZZ   -0.000044  -0.000030   0.000005   0.000000   0.000005
   43  C  3 XY   -0.000000   0.000000   0.000000   0.000021   0.000000
   44  C  3 XZ   -0.000045  -0.000050   0.000014   0.000000   0.000069
   45  C  3 YZ   -0.000000   0.000000   0.000000  -0.000010   0.000000
   46  C  4  S   -0.000005   0.000010   0.000018   0.000000   0.000003
   47  C  4  S   -0.000054   0.000085   0.000128   0.000000   0.000111
   48  C  4  S    0.000588  -0.001694  -0.002410   0.000000   0.000665
   49  C  4  X   -0.000023   0.000013  -0.000005   0.000000  -0.000034
   50  C  4  Y   -0.000000   0.000000   0.000000   0.000002   0.000000
   51  C  4  Z    0.000017   0.000003   0.000004   0.000000   0.000065
   52  C  4  X    0.002775  -0.000775   0.003218   0.000000   0.000236
   53  C  4  Y   -0.000000   0.000000   0.000000  -0.000088   0.000000
   54  C  4  Z   -0.001843   0.000487  -0.001774   0.000000  -0.000765
   55  C  4 XX   -0.000015  -0.000020  -0.000073   0.000000  -0.000040
   56  C  4 YY   -0.000029   0.000049   0.000078   0.000000   0.000035
   57  C  4 ZZ    0.000044  -0.000030  -0.000005   0.000000   0.000005
   58  C  4 XY   -0.000000   0.000000   0.000000  -0.000021   0.000000
   59  C  4 XZ   -0.000045   0.000050   0.000014   0.000000  -0.000069
   60  C  4 YZ   -0.000000   0.000000   0.000000  -0.000010   0.000000
   61  SE 5  S   -0.000000   0.000001   0.000000   0.000000  -0.000207
   62  SE 5  S   -0.000000  -0.000002   0.000000   0.000000   0.000674
   63  SE 5  S   -0.000000   0.000005   0.000000   0.000000  -0.000175
   64  SE 5  S   -0.000000  -0.000010   0.000000   0.000000   0.000016
   65  SE 5  S   -0.000000  -0.000099   0.000000   0.000000   0.002220
   66  SE 5  X   -0.000001   0.000000   0.996324   0.000000   0.000000
   67  SE 5  Y   -0.000000   0.000000   0.000000   0.996407   0.000000
   68  SE 5  Z   -0.000000   0.000003   0.000000   0.000000   0.996361
   69  SE 5  X    0.000003   0.000000   0.009852   0.000000   0.000000
   70  SE 5  Y   -0.000000   0.000000   0.000000   0.009562   0.000000
   71  SE 5  Z   -0.000000  -0.000013   0.000000   0.000000   0.009732
   72  SE 5  X   -0.000031   0.000000  -0.002851   0.000000   0.000000
   73  SE 5  Y   -0.000000   0.000000   0.000000  -0.001207   0.000000
   74  SE 5  Z   -0.000000   0.000082   0.000000   0.000000  -0.002223
   75  SE 5  X    0.000035   0.000000   0.000088   0.000000   0.000000
   76  SE 5  Y   -0.000000   0.000000   0.000000   0.000441   0.000000
   77  SE 5  Z   -0.000000   0.000032   0.000000   0.000000  -0.000096
   78  SE 5 XX   -0.000000  -0.000005   0.000000   0.000000   0.000018
   79  SE 5 YY   -0.000000  -0.000000   0.000000   0.000000   0.000080
   80  SE 5 ZZ   -0.000000   0.000005   0.000000   0.000000  -0.000099
   81  SE 5 XY   -0.000000   0.000000   0.000000   0.000000   0.000000
   82  SE 5 XZ    0.000005   0.000000  -0.000132   0.000000   0.000000
   83  SE 5 YZ   -0.000000   0.000000   0.000000  -0.000055   0.000000
   84  SE 5 XX   -0.000000   0.000033   0.000000   0.000000   0.000155
   85  SE 5 YY   -0.000000   0.000008   0.000000   0.000000  -0.000495
   86  SE 5 ZZ   -0.000000  -0.000041   0.000000   0.000000   0.000339
   87  SE 5 XY   -0.000000   0.000000   0.000000   0.000000   0.000000
   88  SE 5 XZ   -0.000030   0.000000   0.000974   0.000000   0.000000
   89  SE 5 YZ   -0.000000   0.000000   0.000000   0.000106   0.000000
   90  C  6  S   -0.000001  -0.000002  -0.000004   0.000000   0.000007
   91  C  6  S   -0.000019  -0.000025  -0.000038   0.000000   0.000077
   92  C  6  S    0.000025   0.000231   0.001398   0.000000  -0.000814
   93  C  6  X    0.000005   0.000004   0.000016   0.000000   0.000004
   94  C  6  Y   -0.000000   0.000000   0.000000   0.000001   0.000000
   95  C  6  Z   -0.000024  -0.000026  -0.000003   0.000000  -0.000002
   96  C  6  X   -0.000116   0.000090  -0.000018   0.000000  -0.000448
   97  C  6  Y   -0.000000   0.000000   0.000000   0.000032   0.000000
   98  C  6  Z    0.003466   0.001664   0.001338   0.000000  -0.000629
   99  C  6 XX   -0.000012  -0.000006  -0.000019   0.000000  -0.000005
  100  C  6 YY   -0.000004  -0.000009  -0.000013   0.000000   0.000034
  101  C  6 ZZ    0.000017   0.000015   0.000032   0.000000  -0.000029
  102  C  6 XY   -0.000000   0.000000   0.000000   0.000006   0.000000
  103  C  6 XZ    0.000077   0.000023  -0.000002   0.000000  -0.000047
  104  C  6 YZ   -0.000000   0.000000   0.000000   0.000012   0.000000
  105  C  7  S    0.000001  -0.000002   0.000004   0.000000   0.000007
  106  C  7  S    0.000019  -0.000025   0.000038   0.000000   0.000077
  107  C  7  S   -0.000025   0.000231  -0.001398   0.000000  -0.000814
  108  C  7  X    0.000005  -0.000004   0.000016   0.000000  -0.000004
  109  C  7  Y   -0.000000   0.000000   0.000000   0.000001   0.000000
  110  C  7  Z    0.000024  -0.000026   0.000003   0.000000  -0.000002
  111  C  7  X   -0.000116  -0.000090  -0.000018   0.000000   0.000448
  112  C  7  Y   -0.000000   0.000000   0.000000   0.000032   0.000000
  113  C  7  Z   -0.003466   0.001664  -0.001338   0.000000  -0.000629
  114  C  7 XX    0.000012  -0.000006   0.000019   0.000000  -0.000005
  115  C  7 YY    0.000004  -0.000009   0.000013   0.000000   0.000034
  116  C  7 ZZ   -0.000017   0.000015  -0.000032   0.000000  -0.000029
  117  C  7 XY   -0.000000   0.000000   0.000000  -0.000006   0.000000
  118  C  7 XZ    0.000077  -0.000023  -0.000002   0.000000   0.000047
  119  C  7 YZ   -0.000000   0.000000   0.000000   0.000012   0.000000
  120  C  8  S   -0.000011  -0.000007   0.000001   0.000000   0.000002
  121  C  8  S   -0.000095  -0.000080   0.000006   0.000000   0.000026
  122  C  8  S    0.001707   0.001345   0.000183   0.000000  -0.000197
  123  C  8  X    0.000020   0.000004   0.000006   0.000000  -0.000012
  124  C  8  Y   -0.000000   0.000000   0.000000  -0.000001   0.000000
  125  C  8  Z   -0.000000   0.000020   0.000003   0.000000   0.000002
  126  C  8  X   -0.001958  -0.000629  -0.000562   0.000000   0.000184
  127  C  8  Y   -0.000000   0.000000   0.000000  -0.000001   0.000000
  128  C  8  Z    0.001629   0.000345   0.000173   0.000000   0.000010
  129  C  8 XX    0.000039   0.000035  -0.000003   0.000000  -0.000011
  130  C  8 YY   -0.000061  -0.000036   0.000002   0.000000   0.000013
  131  C  8 ZZ    0.000022   0.000001   0.000000   0.000000  -0.000002
  132  C  8 XY   -0.000000   0.000000   0.000000   0.000000   0.000000
  133  C  8 XZ   -0.000046  -0.000044   0.000002   0.000000   0.000011
  134  C  8 YZ   -0.000000   0.000000   0.000000   0.000001   0.000000
  135  C  9  S    0.000011  -0.000007  -0.000001   0.000000   0.000002
  136  C  9  S    0.000095  -0.000080  -0.000006   0.000000   0.000026
  137  C  9  S   -0.001707   0.001345  -0.000183   0.000000  -0.000197
  138  C  9  X    0.000020  -0.000004   0.000006   0.000000   0.000012
  139  C  9  Y   -0.000000   0.000000   0.000000  -0.000001   0.000000
  140  C  9  Z    0.000000   0.000020  -0.000003   0.000000   0.000002
  141  C  9  X   -0.001958   0.000629  -0.000562   0.000000  -0.000184
  142  C  9  Y   -0.000000   0.000000   0.000000  -0.000001   0.000000
  143  C  9  Z   -0.001629   0.000345  -0.000173   0.000000   0.000010
  144  C  9 XX   -0.000039   0.000035   0.000003   0.000000  -0.000011
  145  C  9 YY    0.000061  -0.000036  -0.000002   0.000000   0.000013
  146  C  9 ZZ   -0.000022   0.000001  -0.000000   0.000000  -0.000002
  147  C  9 XY   -0.000000   0.000000   0.000000  -0.000000   0.000000
  148  C  9 XZ   -0.000046   0.000044   0.000002   0.000000  -0.000011
  149  C  9 YZ   -0.000000   0.000000   0.000000   0.000001   0.000000
  150  BR10  S   -0.000002  -0.000002  -0.000000   0.000000  -0.000000
  151  BR10  S    0.000006   0.000006  -0.000000   0.000000   0.000003
  152  BR10  S   -0.000002  -0.000002  -0.000001   0.000000   0.000006
  153  BR10  S   -0.000003  -0.000003  -0.000005   0.000000   0.000048
  154  BR10  S   -0.000020   0.000023  -0.000083   0.000000  -0.000158
  155  BR10  X   -0.025684  -0.025586  -0.000001   0.000000  -0.000002
  156  BR10  Y   -0.000000   0.000000   0.000000   0.000000   0.000000
  157  BR10  Z    0.704003   0.704010  -0.000001   0.000000   0.000003
  158  BR10  X   -0.000252  -0.000253   0.000005   0.000000   0.000005
  159  BR10  Y   -0.000000   0.000000   0.000000  -0.000002   0.000000
  160  BR10  Z    0.006940   0.006928   0.000002   0.000000  -0.000009
  161  BR10  X    0.000025   0.000039  -0.000038   0.000000  -0.000026
  162  BR10  Y   -0.000000   0.000000   0.000000   0.000006   0.000000
  163  BR10  Z   -0.001002  -0.000934  -0.000018   0.000000   0.000044
  164  BR10  X   -0.000019  -0.000005  -0.000029   0.000000  -0.000060
  165  BR10  Y   -0.000000   0.000000   0.000000  -0.000016   0.000000
  166  BR10  Z    0.000307   0.000324  -0.000045   0.000000  -0.000014
  167  BR10 XX   -0.000003  -0.000003   0.000002   0.000000   0.000001
  168  BR10 YY    0.000001   0.000001   0.000000   0.000000  -0.000004
  169  BR10 ZZ    0.000002   0.000002  -0.000002   0.000000   0.000003
  170  BR10 XY   -0.000000   0.000000   0.000000   0.000001   0.000000
  171  BR10 XZ    0.000055   0.000049   0.000004   0.000000  -0.000002
  172  BR10 YZ   -0.000000   0.000000   0.000000   0.000000   0.000000
  173  BR10 XX    0.000003   0.000005  -0.000017   0.000000  -0.000008
  174  BR10 YY   -0.000003  -0.000002  -0.000001   0.000000   0.000016
  175  BR10 ZZ   -0.000000  -0.000003   0.000019   0.000000  -0.000008
  176  BR10 XY   -0.000000   0.000000   0.000000  -0.000004   0.000000
  177  BR10 XZ   -0.000145  -0.000101  -0.000027   0.000000   0.000019
  178  BR10 YZ   -0.000000   0.000000   0.000000  -0.000001   0.000000
  179  BR11  S    0.000002  -0.000002   0.000000   0.000000  -0.000000
  180  BR11  S   -0.000006   0.000006   0.000000   0.000000   0.000003
  181  BR11  S    0.000002  -0.000002   0.000001   0.000000   0.000006
  182  BR11  S    0.000003  -0.000003   0.000005   0.000000   0.000048
  183  BR11  S    0.000020   0.000023   0.000083   0.000000  -0.000158
  184  BR11  X   -0.025684   0.025586  -0.000001   0.000000   0.000002
  185  BR11  Y   -0.000000   0.000000   0.000000   0.000000   0.000000
  186  BR11  Z   -0.704003   0.704010   0.000001   0.000000   0.000003
  187  BR11  X   -0.000252   0.000253   0.000005   0.000000  -0.000005
  188  BR11  Y   -0.000000   0.000000   0.000000  -0.000002   0.000000
  189  BR11  Z   -0.006940   0.006928  -0.000002   0.000000  -0.000009
  190  BR11  X    0.000025  -0.000039  -0.000038   0.000000   0.000026
  191  BR11  Y   -0.000000   0.000000   0.000000   0.000006   0.000000
  192  BR11  Z    0.001002  -0.000934   0.000018   0.000000   0.000044
  193  BR11  X   -0.000019   0.000005  -0.000029   0.000000   0.000060
  194  BR11  Y   -0.000000   0.000000   0.000000  -0.000016   0.000000
  195  BR11  Z   -0.000307   0.000324   0.000045   0.000000  -0.000014
  196  BR11 XX    0.000003  -0.000003  -0.000002   0.000000   0.000001
  197  BR11 YY   -0.000001   0.000001  -0.000000   0.000000  -0.000004
  198  BR11 ZZ   -0.000002   0.000002   0.000002   0.000000   0.000003
  199  BR11 XY   -0.000000   0.000000   0.000000  -0.000001   0.000000
  200  BR11 XZ    0.000055  -0.000049   0.000004   0.000000   0.000002
  201  BR11 YZ   -0.000000   0.000000   0.000000   0.000000   0.000000
  202  BR11 XX   -0.000003   0.000005   0.000017   0.000000  -0.000008
  203  BR11 YY    0.000003  -0.000002   0.000001   0.000000   0.000016
  204  BR11 ZZ    0.000000  -0.000003  -0.000019   0.000000  -0.000008
  205  BR11 XY   -0.000000   0.000000   0.000000   0.000004   0.000000
  206  BR11 XZ   -0.000145   0.000101  -0.000027   0.000000  -0.000019
  207  BR11 YZ   -0.000000   0.000000   0.000000  -0.000001   0.000000
  208  H 12  S   -0.000027  -0.000069  -0.000017   0.000000   0.000021
  209  H 12  S    0.000141   0.000034  -0.000051   0.000000   0.000018
  210  H 12  X    0.000064   0.000029   0.000012   0.000000  -0.000004
  211  H 12  Y   -0.000000   0.000000   0.000000   0.000000   0.000000
  212  H 12  Z   -0.000029   0.000011  -0.000004   0.000000  -0.000007
  213  H 13  S    0.000027  -0.000069   0.000017   0.000000   0.000021
  214  H 13  S   -0.000141   0.000034   0.000051   0.000000   0.000018
  215  H 13  X    0.000064  -0.000029   0.000012   0.000000   0.000004
  216  H 13  Y   -0.000000   0.000000   0.000000   0.000000   0.000000
  217  H 13  Z    0.000029   0.000011   0.000004   0.000000  -0.000007

                     16         17         18         19         20
                  -15.6089   -15.6088   -11.3269   -11.3269   -11.3178
                     B1         A1         B1         A1         A1  
    1  N  1  S    0.705276   0.705279  -0.000001  -0.000003  -0.000218
    2  N  1  S    0.007820   0.007746   0.000112   0.000146   0.000496
    3  N  1  S   -0.001301  -0.001054  -0.001146  -0.000746  -0.001667
[...]
                   Z  0.09830622 -0.00000000  0.04159018  0.03682255  0.00000000
 10   BR           X  0.00984627 -0.00000000  0.00523601  0.00353760 -0.00000000
                   Y -0.00000000 -0.00083923  0.00000000  0.00000000 -0.00151068
                   Z -0.00042666 -0.00000000  0.00091378  0.00051380 -0.00000000
 11   BR           X -0.00984627  0.00000000  0.00523601 -0.00353760 -0.00000000
                   Y  0.00000000  0.00083923  0.00000000 -0.00000000 -0.00151068
                   Z -0.00042666 -0.00000000 -0.00091378  0.00051380  0.00000000
 12   H            X  0.07600084 -0.00000000  0.05552224  0.05161922 -0.00000000
                   Y  0.00000000  0.01694438  0.00000000  0.00000000  0.62059110
                   Z  0.05709860 -0.00000000 -0.07411808  0.01214182 -0.00000000
 13   H            X -0.07600084  0.00000000  0.05552224 -0.05161922 -0.00000000
                   Y -0.00000000 -0.01694438  0.00000000 -0.00000000  0.62059110
                   Z  0.05709860 -0.00000000  0.07411808  0.01214182  0.00000000

 TRANS. SAYVETZ    X -0.00000000 -0.00000000  0.00003838 -0.00000000  0.00000000
                   Y  0.00000000  0.00000000  0.00000000 -0.00000000  0.00004360
                   Z  0.00029708  0.00000000 -0.00000000 -0.00001878 -0.00000000
               TOTAL  0.00029708  0.00000000  0.00003838  0.00001878  0.00004360

   ROT. SAYVETZ    X -0.00000001 -0.00000000 -0.00000001  0.00000001 -0.00064978
                   Y -0.00000001  0.00000000  0.00025782 -0.00000000  0.00000000
                   Z  0.00000005 -0.00118420 -0.00000000 -0.00000000  0.00000000
               TOTAL  0.00000005  0.00118420  0.00025782  0.00000001  0.00064978

                           26          27          28          29          30
       FREQUENCY:       920.04      926.53      944.37     1120.11     1183.35  
        SYMMETRY:         B1          A1          A2          A1          B1  
    REDUCED MASS:      9.13853     8.19358     1.29341     1.85946     2.53209
    IR INTENSITY:      1.92804     0.20641     0.00000     0.00545     1.79011

  1   N            X -0.04314740  0.00012911  0.00000000  0.00250813  0.03627963
                   Y -0.00000000 -0.00000000 -0.00454242 -0.00000000 -0.00000000
                   Z  0.07535418 -0.09269222  0.00000000  0.02198668 -0.04023909
  2   N            X -0.04314740 -0.00012911 -0.00000000 -0.00250813  0.03627963
                   Y -0.00000000  0.00000000  0.00454242  0.00000000 -0.00000000
                   Z -0.07535418 -0.09269222  0.00000000  0.02198668  0.04023909
  3   C            X  0.05800000  0.07017728 -0.00000000  0.00360180 -0.09613769
                   Y -0.00000000  0.00000000  0.02775711 -0.00000000  0.00000000
                   Z  0.05048790  0.02111153 -0.00000000 -0.01908472 -0.00991972
  4   C            X  0.05800000 -0.07017728  0.00000000 -0.00360180 -0.09613769
                   Y -0.00000000 -0.00000000 -0.02775711  0.00000000  0.00000000
                   Z -0.05048790  0.02111153 -0.00000000 -0.01908472  0.00991972
  5   SE           X -0.00509117 -0.00000000 -0.00000000  0.00000000  0.00107613
                   Y  0.00000000  0.00000000 -0.00000000 -0.00000000 -0.00000000
                   Z  0.00000000  0.00617956 -0.00000000  0.00005555 -0.00000000
  6   C            X  0.10657928  0.14133101 -0.00000000  0.06666700  0.11678333
                   Y -0.00000000 -0.00000000  0.00432345 -0.00000000  0.00000000
                   Z -0.00028470  0.05727451 -0.00000000 -0.04296013 -0.02636875
  7   C            X  0.10657928 -0.14133101  0.00000000 -0.06666700  0.11678333
                   Y -0.00000000  0.00000000 -0.00432345  0.00000000  0.00000000
                   Z  0.00028470  0.05727451 -0.00000000 -0.04296013  0.02636875
  8   C            X -0.05376476  0.00946903  0.00000000  0.10811873 -0.01130960
                   Y  0.00000000 -0.00000000 -0.09605467  0.00000000 -0.00000000
                   Z -0.10489784  0.00928265 -0.00000000  0.04239094  0.00128534
  9   C            X -0.05376476 -0.00946903 -0.00000000 -0.10811873 -0.01130960
                   Y  0.00000000  0.00000000  0.09605467 -0.00000000 -0.00000000
                   Z  0.10489784  0.00928265 -0.00000000  0.04239094 -0.00128534
 10   BR           X -0.00640543 -0.01053538  0.00000000 -0.00362946 -0.00380084
                   Y -0.00000000  0.00000000 -0.00069882 -0.00000000  0.00000000
                   Z -0.00093756 -0.00115324  0.00000000  0.00097778  0.00041961
 11   BR           X -0.00640543  0.01053538 -0.00000000  0.00362946 -0.00380084
                   Y -0.00000000 -0.00000000  0.00069882  0.00000000  0.00000000
                   Z  0.00093756 -0.00115324  0.00000000  0.00097778 -0.00041961
 12   H            X -0.01657479 -0.12451560  0.00000000  0.47503212 -0.36030439
                   Y -0.00000000  0.00000000  0.61362718 -0.00000000  0.00000000
                   Z -0.12520949  0.08941357 -0.00000000 -0.15027492  0.20221584
 13   H            X -0.01657479  0.12451560 -0.00000000 -0.47503212 -0.36030439
                   Y -0.00000000 -0.00000000 -0.61362718  0.00000000  0.00000000
                   Z  0.12520949  0.08941357 -0.00000000 -0.15027492 -0.20221584

 TRANS. SAYVETZ    X -0.00013176 -0.00000000 -0.00000000  0.00000000 -0.00004040
                   Y -0.00000000  0.00000000 -0.00000000 -0.00000000  0.00000000
                   Z  0.00000000  0.00014847 -0.00000000 -0.00006427 -0.00000000
               TOTAL  0.00013176  0.00014847  0.00000000  0.00006427  0.00004040

   ROT. SAYVETZ    X -0.00000001 -0.00000000  0.00000000  0.00000000  0.00000001
                   Y  0.00024375 -0.00000001 -0.00000000  0.00000000  0.00031545
                   Z -0.00000000 -0.00000001  0.00002079  0.00000001  0.00000000
               TOTAL  0.00024375  0.00000001  0.00002079  0.00000001  0.00031545

                           31          32          33          34          35
       FREQUENCY:      1277.01     1288.66     1319.99     1380.49     1467.73  
        SYMMETRY:         A1          B1          A1          A1          B1  
    REDUCED MASS:      2.35352     3.16518    10.91317    10.24730     3.52491
    IR INTENSITY:      0.07837     0.48210     0.13336     0.21083     1.03522

  1   N            X  0.00737445 -0.03673767 -0.03079410  0.00044804  0.00472453
                   Y  0.00000000  0.00000000  0.00000000 -0.00000000 -0.00000000
                   Z -0.05619617  0.08115056  0.06331951  0.01214501 -0.03132466
  2   N            X -0.00737445 -0.03673767  0.03079410 -0.00044804  0.00472453
                   Y -0.00000000  0.00000000 -0.00000000  0.00000000 -0.00000000
                   Z -0.05619617 -0.08115056  0.06331951  0.01214501  0.03132466
  3   C            X  0.03549604  0.07336106  0.16525580 -0.04486303  0.03059896
                   Y  0.00000000  0.00000000  0.00000000  0.00000000 -0.00000000
                   Z  0.10263800 -0.09394548 -0.07473178 -0.09145816  0.12582739
  4   C            X -0.03549604  0.07336106 -0.16525580  0.04486303  0.03059896
                   Y -0.00000000  0.00000000 -0.00000000 -0.00000000 -0.00000000
                   Z  0.10263800  0.09394548 -0.07473178 -0.09145816 -0.12582739
  5   SE           X -0.00000000 -0.00119729 -0.00000000 -0.00000000 -0.00067524
                   Y  0.00000000  0.00000000  0.00000000 -0.00000000 -0.00000000
                   Z -0.00134302  0.00000000 -0.00192823  0.00268732 -0.00000000
  6   C            X -0.04832766 -0.02263213 -0.01773867 -0.00730832 -0.07625418
                   Y  0.00000000 -0.00000000 -0.00000000 -0.00000000  0.00000000
                   Z  0.04874752 -0.07433647  0.01169872  0.15027435 -0.03000381
  7   C            X  0.04832766 -0.02263213  0.01773867  0.00730832 -0.07625418
                   Y -0.00000000 -0.00000000  0.00000000  0.00000000  0.00000000
                   Z  0.04874752  0.07433647  0.01169872  0.15027435  0.03000381
  8   C            X -0.05392458  0.02014673 -0.04498450  0.05037549  0.05730826
                   Y  0.00000000  0.00000000  0.00000000 -0.00000000 -0.00000000
                   Z -0.05253955  0.03106936  0.00601295 -0.07252749 -0.06712820
  9   C            X  0.05392458  0.02014673  0.04498450 -0.05037549  0.05730826
                   Y -0.00000000  0.00000000 -0.00000000  0.00000000 -0.00000000
                   Z -0.05253955 -0.03106936  0.00601295 -0.07252749  0.06712820
 10   BR           X  0.00187895  0.00007597 -0.00016856  0.00021718  0.00163105
                   Y -0.00000000  0.00000000 -0.00000000 -0.00000000  0.00000000
                   Z -0.00079742  0.00018820 -0.00092138 -0.00044094  0.00023530
 11   BR           X -0.00187895  0.00007597  0.00016856 -0.00021718  0.00163105
                   Y  0.00000000  0.00000000  0.00000000  0.00000000  0.00000000
                   Z -0.00079742 -0.00018820 -0.00092138 -0.00044094 -0.00023530
 12   H            X  0.32924061 -0.29187346  0.05215818  0.04269936 -0.30536325
                   Y  0.00000000 -0.00000000  0.00000000  0.00000000  0.00000000
                   Z -0.28045781  0.20790897 -0.05224692 -0.07750825  0.12775079
 13   H            X -0.32924061 -0.29187346 -0.05215818 -0.04269936 -0.30536325
                   Y -0.00000000 -0.00000000 -0.00000000 -0.00000000  0.00000000
                   Z -0.28045781 -0.20790897 -0.05224692 -0.07750825 -0.12775079

 TRANS. SAYVETZ    X -0.00000000  0.00012750 -0.00000000 -0.00000000 -0.00003956
                   Y  0.00000000  0.00000000  0.00000000 -0.00000000 -0.00000000
                   Z -0.00003104  0.00000000  0.00001648 -0.00000217 -0.00000000
               TOTAL  0.00003104  0.00012750  0.00001648  0.00000217  0.00003956

   ROT. SAYVETZ    X -0.00000000  0.00000000 -0.00000000  0.00000000  0.00000000
                   Y -0.00000000 -0.00099845 -0.00000000 -0.00000000  0.00030103
                   Z  0.00000000 -0.00000000 -0.00000000  0.00000001  0.00000000
               TOTAL  0.00000000  0.00099845  0.00000001  0.00000001  0.00030103

                           36          37          38          39
       FREQUENCY:      1540.68     1595.43     3230.38     3242.73  
        SYMMETRY:         A1          B1          B1          A1  
    REDUCED MASS:      6.35121     7.80405     1.08895     1.09607
    IR INTENSITY:      0.03030     0.21911     0.00435     0.00051

  1   N            X -0.00077090 -0.00261539  0.00003256 -0.00003118
                   Y  0.00000000 -0.00000000 -0.00000000  0.00000000
                   Z -0.01531434  0.00741659 -0.00004250 -0.00002414
  2   N            X  0.00077090 -0.00261539  0.00003256  0.00003118
                   Y -0.00000000 -0.00000000 -0.00000000 -0.00000000
                   Z -0.01531434 -0.00741659  0.00004250 -0.00002414
  3   C            X  0.07313355 -0.02052101  0.00020655  0.00004532
                   Y  0.00000000  0.00000000  0.00000000 -0.00000000
                   Z  0.05701028 -0.08643355  0.00013440  0.00026168
  4   C            X -0.07313355 -0.02052101  0.00020655 -0.00004532
                   Y -0.00000000  0.00000000  0.00000000  0.00000000
                   Z  0.05701028  0.08643355 -0.00013440  0.00026168
  5   SE           X -0.00000000  0.00088032  0.00000174  0.00000000
                   Y  0.00000000 -0.00000000 -0.00000000 -0.00000000
                   Z -0.00141962  0.00000000 -0.00000000  0.00000217
  6   C            X -0.07916209 -0.02489461 -0.00194567 -0.00233849
                   Y  0.00000000 -0.00000000 -0.00000000  0.00000000
                   Z -0.00550394  0.13463144  0.00184965  0.00266533
  7   C            X  0.07916209 -0.02489461 -0.00194567  0.00233849
                   Y -0.00000000 -0.00000000 -0.00000000 -0.00000000
                   Z -0.00550394 -0.13463144 -0.00184965  0.00266533
  8   C            X  0.14617237  0.05601204 -0.02616351 -0.03059292
                   Y  0.00000000  0.00000000  0.00000000 -0.00000000
                   Z -0.04145984 -0.09878852 -0.05193339 -0.05209301
  9   C            X -0.14617237  0.05601204 -0.02616351  0.03059292
                   Y -0.00000000  0.00000000  0.00000000  0.00000000
                   Z -0.04145984  0.09878852  0.05193339 -0.05209301
 10   BR           X  0.00058097  0.00040255  0.00003754  0.00004663
                   Y -0.00000000 -0.00000000  0.00000000  0.00000000
                   Z  0.00024974 -0.00051287  0.00000475 -0.00000287
 11   BR           X -0.00058097  0.00040255  0.00003754 -0.00004663
                   Y  0.00000000 -0.00000000  0.00000000 -0.00000000
                   Z  0.00024974  0.00051287 -0.00000475 -0.00000287
 12   H            X -0.15374687 -0.15626108  0.32876304  0.33054422
                   Y  0.00000000 -0.00000000  0.00000000 -0.00000000
                   Z  0.12988306  0.00743913  0.58964553  0.58587746
 13   H            X  0.15374687 -0.15626108  0.32876304 -0.33054422
                   Y -0.00000000 -0.00000000  0.00000000  0.00000000
                   Z  0.12988306 -0.00743913 -0.58964553  0.58587746

 TRANS. SAYVETZ    X -0.00000000 -0.00001056 -0.00001603  0.00000000
                   Y  0.00000000 -0.00000000  0.00000000 -0.00000000
                   Z -0.00001301  0.00000000 -0.00000000 -0.00001524
               TOTAL  0.00001301  0.00001056  0.00001603  0.00001524

   ROT. SAYVETZ    X -0.00000000 -0.00000000  0.00000000  0.00000000
                   Y -0.00000000  0.00014312  0.00019547  0.00000000
                   Z  0.00000000  0.00000000  0.00000000 -0.00000000
               TOTAL  0.00000000  0.00014312  0.00019547  0.00000000

 REFERENCE ON SAYVETZ CONDITIONS - A. SAYVETZ, J.CHEM.PHYS., 7, 383-389(1939).

 NOTE - THE MODES J,K ARE ORTHONORMALIZED ACCORDING TO
 SUM ON I   M(I) * (X(I,J)*X(I,K) + Y(I,J)*Y(I,K) + Z(I,J)*Z(I,K)) = DELTA(J,K)

  MODE FREQ(CM**-1)  SYMMETRY  RED. MASS  IR INTENS.
     1       1.963    B2      22.269633    0.000040
     2       1.394    B1      38.079355    0.000015
     3       0.158    A1      26.138495    0.000000
     4       0.216    B2      23.840385    0.000000
     5       0.229    B1      24.582947    0.000001
     6       0.376    A2      53.515120    0.000000
     7      72.556    B2       9.628510    0.002125
     8     126.041    B1      44.052897    0.009569
     9     129.032    A1      33.082009    0.000407
    10     155.675    A2      14.127050    0.000000
    11     171.489    B2       6.998415    0.116241
    12     214.306    A1      61.955813    0.001328
    13     315.789    A2       6.273360    0.000000
    14     399.357    B1       9.599217    0.033256
    15     407.819    A1      14.389444    0.031881
    16     435.365    B2       9.735463    0.101389
    17     465.783    B1       7.958640    0.122220
    18     538.790    A2       4.521050    0.000000
    19     588.371    B2       8.799978    0.244226
    20     592.456    B1       9.093414    0.062348
    21     665.927    A1      10.924529    0.001140
    22     714.908    A2      12.032887    0.000000
    23     750.873    B1      11.726322    0.149849
    24     785.776    A1      13.202689    0.231525
    25     835.632    B2       1.267617    0.544244
    26     920.037    B1       9.138526    1.928040
    27     926.531    A1       8.193578    0.206408
    28     944.367    A2       1.293410    0.000000
    29    1120.112    A1       1.859456    0.005450
    30    1183.352    B1       2.532092    1.790110
    31    1277.008    A1       2.353516    0.078374
    32    1288.657    B1       3.165178    0.482100
    33    1319.986    A1      10.913173    0.133364
    34    1380.494    A1      10.247304    0.210828
    35    1467.735    B1       3.524908    1.035217
    36    1540.680    A1       6.351211    0.030299
    37    1595.426    B1       7.804052    0.219114
    38    3230.380    B1       1.088955    0.004352
    39    3242.727    A1       1.096073    0.000509

     -------------------------------
     THERMOCHEMISTRY AT T=  298.15 K
     -------------------------------

 USING IDEAL GAS, RIGID ROTOR, HARMONIC NORMAL MODE APPROXIMATIONS.
 P=  1.01325E+05 PASCAL.
 ALL FREQUENCIES ARE SCALED BY   1.00000
 THE MOMENTS OF INERTIA ARE (IN AMU*BOHR**2)
   3352.25616  6674.11922 10026.37538
 THE ROTATIONAL SYMMETRY NUMBER IS  2.0
 THE ROTATIONAL CONSTANTS ARE (IN GHZ)
      0.53787     0.27016     0.17983
      7 -     39 VIBRATIONAL MODES ARE USED IN THERMOCHEMISTRY.
 THE HARMONIC ZERO POINT ENERGY IS (SCALED BY   1.000)
        0.067897 HARTREE/MOLECULE    14901.718735 CM**-1/MOLECULE 
       42.606195 KCAL/MOL              178.264318 KJ/MOL

               Q               LN Q
 ELEC.     1.00000E+00       0.000000
 TRANS.    2.46173E+08      19.321546
 ROT.      2.68070E+06      14.801590
 VIB.      2.73265E+02       5.610442
 TOT.      1.80332E+17      39.733578

              E         H         G         CV        CP        S
           KJ/MOL    KJ/MOL    KJ/MOL   J/MOL-K   J/MOL-K   J/MOL-K
 ELEC.      0.000     0.000     0.000     0.000     0.000     0.000
 TRANS.     3.718     6.197   -47.897    12.472    20.786   181.433
 ROT.       3.718     3.718   -36.692    12.472    12.472   135.538
 VIB.     195.911   195.911   164.356   118.382   118.382   105.834
 TOTAL    203.348   205.827    79.767   143.325   151.640   422.806
 VIB. THERMAL CORRECTION E(T)-E(0) = H(T)-H(0) = 17646.598 J/MOL

              E         H         G         CV        CP        S
         KCAL/MOL  KCAL/MOL  KCAL/MOL CAL/MOL-K CAL/MOL-K CAL/MOL-K
 ELEC.      0.000     0.000     0.000     0.000     0.000     0.000
 TRANS.     0.889     1.481   -11.448     2.981     4.968    43.364
 ROT.       0.889     0.889    -8.770     2.981     2.981    32.394
 VIB.      46.824    46.824    39.282    28.294    28.294    25.295
 TOTAL     48.601    49.194    19.065    34.256    36.243   101.053
 VIB. THERMAL CORRECTION E(T)-E(0) = H(T)-H(0) =  4217.638 CAL/MOL
 ......END OF NORMAL COORDINATE ANALYSIS......
 CPU     0: STEP CPU TIME=     0.01 TOTAL CPU TIME=       3932.9 (     65.5 MIN)
 TOTAL WALL CLOCK TIME=       4029.7 SECONDS, CPU UTILIZATION IS    97.60%
              1842523  WORDS OF DYNAMIC MEMORY USED
 EXECUTION OF GAMESS TERMINATED NORMALLY Tue Dec 31 17:28:00 2019
 DDI: 129266352 bytes (123.3 MB / 15 MWords) used by master data server.

 ----------------------------------------
 CPU timing information for all processes
 ========================================
 0: 3869.339 + 63.731 = 3933.71
 1: 3873.763 + 60.767 = 3934.531
 2: 3873.852 + 64.358 = 3938.211
 3: 3871.878 + 63.718 = 3935.596
 4: 3871.894 + 65.724 = 3937.618
 5: 3873.952 + 63.951 = 3937.903
 6: 3876.858 + 65.330 = 3942.188
 7: 3876.13 + 63.421 = 3939.434
 8: 3874.265 + 67.257 = 3941.523
 9: 3880.899 + 64.515 = 3945.414
 10: 3880.819 + 65.229 = 3946.48
 11: 3880.202 + 63.904 = 3944.106
 12: 3882.873 + 65.862 = 3948.735
 13: 3881.218 + 63.419 = 3944.638
 14: 3880.232 + 64.776 = 3945.08
 15: 3884.665 + 61.783 = 3946.448
 16: 0.98 + 0.59 = 0.157
 17: 0.155 + 0.46 = 0.202
 18: 0.108 + 0.65 = 0.173
 19: 0.111 + 0.67 = 0.178
 20: 0.131 + 0.67 = 0.199
 21: 0.136 + 0.77 = 0.214
 22: 0.91 + 0.86 = 0.178
 23: 0.112 + 0.81 = 0.193
 24: 0.129 + 0.87 = 0.216
 25: 0.133 + 0.91 = 0.225
 26: 0.111 + 0.95 = 0.206
 27: 0.117 + 0.98 = 0.215
 28: 0.112 + 0.91 = 0.204
 29: 0.121 + 0.90 = 0.211
 30: 0.109 + 0.97 = 0.207
 31: 0.112 + 0.101 = 0.213
 ----------------------------------------
----- accounting info -----
Files used on the master node chem-xenon-c01 were:
-rw-r--r--. 1 trananh users     650 Dec 31 16:20 /tmp/92838.1.chem-xenon/SeBr_mp2_monomer.F05
-rw-r--r--. 1 trananh users 7296560 Dec 31 17:28 /tmp/92838.1.chem-xenon/SeBr_mp2_monomer.F10
-rw-r--r--. 1 trananh users       0 Dec 31 16:20 /tmp/92838.1.chem-xenon/SeBr_mp2_monomer.nodes.mpd
Tue Dec 31 17:28:03 MST 2019
62035.185u 1033.208s 1:07:12.90 1563.8%	0+0k 8+900272io 0pf+0w
